
     Program PROJWFC v.6.6 starts on 17Nov2020 at 18:55:11 

     This program is part of the open-source Quantum ESPRESSO suite
     for quantum simulation of materials; please cite
         "P. Giannozzi et al., J. Phys.:Condens. Matter 21 395502 (2009);
         "P. Giannozzi et al., J. Phys.:Condens. Matter 29 465901 (2017);
          URL http://www.quantum-espresso.org", 
     in publications or presentations arising from this work. More details at
     http://www.quantum-espresso.org/quote

     Parallel version (MPI & OpenMP), running on      10 processor cores
     Number of MPI processes:                 1
     Threads/MPI process:                    10

     MPI processes distributed on     1 nodes
     Fft bands division:     nmany     =       1

     Reading xml data from directory:

     ./ws2_mo.save/

     IMPORTANT: XC functional enforced from input :
     Exchange-correlation= PBE
                           (   1   4   3   4   0   0   0)
     Any further DFT definition will be discarded
     Please, verify this is what you really want


     G-vector sticks info
     --------------------
     sticks:   dense  smooth     PW     G-vecs:    dense   smooth      PW
     Sum        9913    9913   2587              1011849  1011849  134941


     Gaussian broadening (default values): ngauss,degauss=   0    0.000735


     Calling projwave .... 

  Problem Sizes 
  natomwfc =          162
  nbnd     =           22
  nkstot   =           25
  npwx     =       126527
  nkb      =          598


     Atomic states used for projection
     (read from pseudopotential files):

     state #   1: atom   1 (W  ), wfc  1 (l=0 m= 1)
     state #   2: atom   1 (W  ), wfc  2 (l=1 m= 1)
     state #   3: atom   1 (W  ), wfc  2 (l=1 m= 2)
     state #   4: atom   1 (W  ), wfc  2 (l=1 m= 3)
     state #   5: atom   1 (W  ), wfc  3 (l=2 m= 1)
     state #   6: atom   1 (W  ), wfc  3 (l=2 m= 2)
     state #   7: atom   1 (W  ), wfc  3 (l=2 m= 3)
     state #   8: atom   1 (W  ), wfc  3 (l=2 m= 4)
     state #   9: atom   1 (W  ), wfc  3 (l=2 m= 5)
     state #  10: atom   1 (W  ), wfc  4 (l=0 m= 1)
     state #  11: atom   2 (W  ), wfc  1 (l=0 m= 1)
     state #  12: atom   2 (W  ), wfc  2 (l=1 m= 1)
     state #  13: atom   2 (W  ), wfc  2 (l=1 m= 2)
     state #  14: atom   2 (W  ), wfc  2 (l=1 m= 3)
     state #  15: atom   2 (W  ), wfc  3 (l=2 m= 1)
     state #  16: atom   2 (W  ), wfc  3 (l=2 m= 2)
     state #  17: atom   2 (W  ), wfc  3 (l=2 m= 3)
     state #  18: atom   2 (W  ), wfc  3 (l=2 m= 4)
     state #  19: atom   2 (W  ), wfc  3 (l=2 m= 5)
     state #  20: atom   2 (W  ), wfc  4 (l=0 m= 1)
     state #  21: atom   3 (Mo ), wfc  1 (l=0 m= 1)
     state #  22: atom   3 (Mo ), wfc  2 (l=1 m= 1)
     state #  23: atom   3 (Mo ), wfc  2 (l=1 m= 2)
     state #  24: atom   3 (Mo ), wfc  2 (l=1 m= 3)
     state #  25: atom   3 (Mo ), wfc  3 (l=2 m= 1)
     state #  26: atom   3 (Mo ), wfc  3 (l=2 m= 2)
     state #  27: atom   3 (Mo ), wfc  3 (l=2 m= 3)
     state #  28: atom   3 (Mo ), wfc  3 (l=2 m= 4)
     state #  29: atom   3 (Mo ), wfc  3 (l=2 m= 5)
     state #  30: atom   3 (Mo ), wfc  4 (l=0 m= 1)
     state #  31: atom   4 (W  ), wfc  1 (l=0 m= 1)
     state #  32: atom   4 (W  ), wfc  2 (l=1 m= 1)
     state #  33: atom   4 (W  ), wfc  2 (l=1 m= 2)
     state #  34: atom   4 (W  ), wfc  2 (l=1 m= 3)
     state #  35: atom   4 (W  ), wfc  3 (l=2 m= 1)
     state #  36: atom   4 (W  ), wfc  3 (l=2 m= 2)
     state #  37: atom   4 (W  ), wfc  3 (l=2 m= 3)
     state #  38: atom   4 (W  ), wfc  3 (l=2 m= 4)
     state #  39: atom   4 (W  ), wfc  3 (l=2 m= 5)
     state #  40: atom   4 (W  ), wfc  4 (l=0 m= 1)
     state #  41: atom   5 (W  ), wfc  1 (l=0 m= 1)
     state #  42: atom   5 (W  ), wfc  2 (l=1 m= 1)
     state #  43: atom   5 (W  ), wfc  2 (l=1 m= 2)
     state #  44: atom   5 (W  ), wfc  2 (l=1 m= 3)
     state #  45: atom   5 (W  ), wfc  3 (l=2 m= 1)
     state #  46: atom   5 (W  ), wfc  3 (l=2 m= 2)
     state #  47: atom   5 (W  ), wfc  3 (l=2 m= 3)
     state #  48: atom   5 (W  ), wfc  3 (l=2 m= 4)
     state #  49: atom   5 (W  ), wfc  3 (l=2 m= 5)
     state #  50: atom   5 (W  ), wfc  4 (l=0 m= 1)
     state #  51: atom   6 (W  ), wfc  1 (l=0 m= 1)
     state #  52: atom   6 (W  ), wfc  2 (l=1 m= 1)
     state #  53: atom   6 (W  ), wfc  2 (l=1 m= 2)
     state #  54: atom   6 (W  ), wfc  2 (l=1 m= 3)
     state #  55: atom   6 (W  ), wfc  3 (l=2 m= 1)
     state #  56: atom   6 (W  ), wfc  3 (l=2 m= 2)
     state #  57: atom   6 (W  ), wfc  3 (l=2 m= 3)
     state #  58: atom   6 (W  ), wfc  3 (l=2 m= 4)
     state #  59: atom   6 (W  ), wfc  3 (l=2 m= 5)
     state #  60: atom   6 (W  ), wfc  4 (l=0 m= 1)
     state #  61: atom   7 (W  ), wfc  1 (l=0 m= 1)
     state #  62: atom   7 (W  ), wfc  2 (l=1 m= 1)
     state #  63: atom   7 (W  ), wfc  2 (l=1 m= 2)
     state #  64: atom   7 (W  ), wfc  2 (l=1 m= 3)
     state #  65: atom   7 (W  ), wfc  3 (l=2 m= 1)
     state #  66: atom   7 (W  ), wfc  3 (l=2 m= 2)
     state #  67: atom   7 (W  ), wfc  3 (l=2 m= 3)
     state #  68: atom   7 (W  ), wfc  3 (l=2 m= 4)
     state #  69: atom   7 (W  ), wfc  3 (l=2 m= 5)
     state #  70: atom   7 (W  ), wfc  4 (l=0 m= 1)
     state #  71: atom   8 (W  ), wfc  1 (l=0 m= 1)
     state #  72: atom   8 (W  ), wfc  2 (l=1 m= 1)
     state #  73: atom   8 (W  ), wfc  2 (l=1 m= 2)
     state #  74: atom   8 (W  ), wfc  2 (l=1 m= 3)
     state #  75: atom   8 (W  ), wfc  3 (l=2 m= 1)
     state #  76: atom   8 (W  ), wfc  3 (l=2 m= 2)
     state #  77: atom   8 (W  ), wfc  3 (l=2 m= 3)
     state #  78: atom   8 (W  ), wfc  3 (l=2 m= 4)
     state #  79: atom   8 (W  ), wfc  3 (l=2 m= 5)
     state #  80: atom   8 (W  ), wfc  4 (l=0 m= 1)
     state #  81: atom   9 (W  ), wfc  1 (l=0 m= 1)
     state #  82: atom   9 (W  ), wfc  2 (l=1 m= 1)
     state #  83: atom   9 (W  ), wfc  2 (l=1 m= 2)
     state #  84: atom   9 (W  ), wfc  2 (l=1 m= 3)
     state #  85: atom   9 (W  ), wfc  3 (l=2 m= 1)
     state #  86: atom   9 (W  ), wfc  3 (l=2 m= 2)
     state #  87: atom   9 (W  ), wfc  3 (l=2 m= 3)
     state #  88: atom   9 (W  ), wfc  3 (l=2 m= 4)
     state #  89: atom   9 (W  ), wfc  3 (l=2 m= 5)
     state #  90: atom   9 (W  ), wfc  4 (l=0 m= 1)
     state #  91: atom  10 (S  ), wfc  1 (l=0 m= 1)
     state #  92: atom  10 (S  ), wfc  2 (l=1 m= 1)
     state #  93: atom  10 (S  ), wfc  2 (l=1 m= 2)
     state #  94: atom  10 (S  ), wfc  2 (l=1 m= 3)
     state #  95: atom  11 (S  ), wfc  1 (l=0 m= 1)
     state #  96: atom  11 (S  ), wfc  2 (l=1 m= 1)
     state #  97: atom  11 (S  ), wfc  2 (l=1 m= 2)
     state #  98: atom  11 (S  ), wfc  2 (l=1 m= 3)
     state #  99: atom  12 (S  ), wfc  1 (l=0 m= 1)
     state # 100: atom  12 (S  ), wfc  2 (l=1 m= 1)
     state # 101: atom  12 (S  ), wfc  2 (l=1 m= 2)
     state # 102: atom  12 (S  ), wfc  2 (l=1 m= 3)
     state # 103: atom  13 (S  ), wfc  1 (l=0 m= 1)
     state # 104: atom  13 (S  ), wfc  2 (l=1 m= 1)
     state # 105: atom  13 (S  ), wfc  2 (l=1 m= 2)
     state # 106: atom  13 (S  ), wfc  2 (l=1 m= 3)
     state # 107: atom  14 (S  ), wfc  1 (l=0 m= 1)
     state # 108: atom  14 (S  ), wfc  2 (l=1 m= 1)
     state # 109: atom  14 (S  ), wfc  2 (l=1 m= 2)
     state # 110: atom  14 (S  ), wfc  2 (l=1 m= 3)
     state # 111: atom  15 (S  ), wfc  1 (l=0 m= 1)
     state # 112: atom  15 (S  ), wfc  2 (l=1 m= 1)
     state # 113: atom  15 (S  ), wfc  2 (l=1 m= 2)
     state # 114: atom  15 (S  ), wfc  2 (l=1 m= 3)
     state # 115: atom  16 (S  ), wfc  1 (l=0 m= 1)
     state # 116: atom  16 (S  ), wfc  2 (l=1 m= 1)
     state # 117: atom  16 (S  ), wfc  2 (l=1 m= 2)
     state # 118: atom  16 (S  ), wfc  2 (l=1 m= 3)
     state # 119: atom  17 (S  ), wfc  1 (l=0 m= 1)
     state # 120: atom  17 (S  ), wfc  2 (l=1 m= 1)
     state # 121: atom  17 (S  ), wfc  2 (l=1 m= 2)
     state # 122: atom  17 (S  ), wfc  2 (l=1 m= 3)
     state # 123: atom  18 (S  ), wfc  1 (l=0 m= 1)
     state # 124: atom  18 (S  ), wfc  2 (l=1 m= 1)
     state # 125: atom  18 (S  ), wfc  2 (l=1 m= 2)
     state # 126: atom  18 (S  ), wfc  2 (l=1 m= 3)
     state # 127: atom  19 (S  ), wfc  1 (l=0 m= 1)
     state # 128: atom  19 (S  ), wfc  2 (l=1 m= 1)
     state # 129: atom  19 (S  ), wfc  2 (l=1 m= 2)
     state # 130: atom  19 (S  ), wfc  2 (l=1 m= 3)
     state # 131: atom  20 (S  ), wfc  1 (l=0 m= 1)
     state # 132: atom  20 (S  ), wfc  2 (l=1 m= 1)
     state # 133: atom  20 (S  ), wfc  2 (l=1 m= 2)
     state # 134: atom  20 (S  ), wfc  2 (l=1 m= 3)
     state # 135: atom  21 (S  ), wfc  1 (l=0 m= 1)
     state # 136: atom  21 (S  ), wfc  2 (l=1 m= 1)
     state # 137: atom  21 (S  ), wfc  2 (l=1 m= 2)
     state # 138: atom  21 (S  ), wfc  2 (l=1 m= 3)
     state # 139: atom  22 (S  ), wfc  1 (l=0 m= 1)
     state # 140: atom  22 (S  ), wfc  2 (l=1 m= 1)
     state # 141: atom  22 (S  ), wfc  2 (l=1 m= 2)
     state # 142: atom  22 (S  ), wfc  2 (l=1 m= 3)
     state # 143: atom  23 (S  ), wfc  1 (l=0 m= 1)
     state # 144: atom  23 (S  ), wfc  2 (l=1 m= 1)
     state # 145: atom  23 (S  ), wfc  2 (l=1 m= 2)
     state # 146: atom  23 (S  ), wfc  2 (l=1 m= 3)
     state # 147: atom  24 (S  ), wfc  1 (l=0 m= 1)
     state # 148: atom  24 (S  ), wfc  2 (l=1 m= 1)
     state # 149: atom  24 (S  ), wfc  2 (l=1 m= 2)
     state # 150: atom  24 (S  ), wfc  2 (l=1 m= 3)
     state # 151: atom  25 (S  ), wfc  1 (l=0 m= 1)
     state # 152: atom  25 (S  ), wfc  2 (l=1 m= 1)
     state # 153: atom  25 (S  ), wfc  2 (l=1 m= 2)
     state # 154: atom  25 (S  ), wfc  2 (l=1 m= 3)
     state # 155: atom  26 (S  ), wfc  1 (l=0 m= 1)
     state # 156: atom  26 (S  ), wfc  2 (l=1 m= 1)
     state # 157: atom  26 (S  ), wfc  2 (l=1 m= 2)
     state # 158: atom  26 (S  ), wfc  2 (l=1 m= 3)
     state # 159: atom  27 (S  ), wfc  1 (l=0 m= 1)
     state # 160: atom  27 (S  ), wfc  2 (l=1 m= 1)
     state # 161: atom  27 (S  ), wfc  2 (l=1 m= 2)
     state # 162: atom  27 (S  ), wfc  2 (l=1 m= 3)

 k =   0.0000000000  0.0000000000  0.0000000000
==== e(   1) =   -71.43750 eV ==== 
     psi = 0.141*[#   1]+0.141*[#  81]+0.140*[#  31]+0.140*[#  71]+0.139*[#  11]
          +0.139*[#  51]+0.097*[#  41]+0.033*[#  61]+0.005*[#  30]+0.002*[#  70]
          +0.001*[#  50]+0.001*[#  96]+0.001*[# 108]+0.001*[# 112]+0.001*[# 132]
          +0.001*[# 144]+0.001*[# 148]
    |psi|^2 = 1.000
==== e(   2) =   -71.42886 eV ==== 
     psi = 0.266*[#   1]+0.266*[#  81]+0.220*[#  31]+0.220*[#  71]+0.002*[#  11]
          +0.002*[#  51]+0.001*[#  92]+0.001*[# 124]+0.001*[# 128]+0.001*[# 160]
          
    |psi|^2 = 1.000
==== e(   3) =   -71.42883 eV ==== 
     psi = 0.326*[#  11]+0.326*[#  51]+0.085*[#  31]+0.085*[#  71]+0.077*[#   1]
          +0.077*[#  81]+0.002*[# 100]+0.002*[# 136]+0.001*[#  97]+0.001*[# 133]
          
    |psi|^2 = 1.000
==== e(   4) =   -71.42863 eV ==== 
     psi = 0.247*[#   1]+0.247*[#  81]+0.241*[#  31]+0.241*[#  71]+0.001*[# 116]
          +0.001*[# 125]+0.001*[# 152]+0.001*[# 161]+0.001*[#  94]+0.001*[# 108]
          +0.001*[# 130]+0.001*[# 144]
    |psi|^2 = 1.000
==== e(   5) =   -71.42860 eV ==== 
     psi = 0.322*[#  11]+0.322*[#  51]+0.105*[#  31]+0.105*[#  71]+0.061*[#   1]
          +0.061*[#  81]+0.001*[# 102]+0.001*[# 138]+0.001*[# 104]+0.001*[# 120]
          +0.001*[# 140]+0.001*[# 156]
    |psi|^2 = 1.000
==== e(   6) =   -71.42263 eV ==== 
     psi = 0.163*[#  11]+0.163*[#  51]+0.162*[#  31]+0.162*[#  71]+0.160*[#   1]
          +0.160*[#  81]+0.002*[#  10]+0.002*[#  20]+0.002*[#  40]+0.002*[#  60]
          +0.002*[#  80]+0.002*[#  90]
    |psi|^2 = 1.000
==== e(   7) =   -71.42112 eV ==== 
     psi = 0.867*[#  41]+0.029*[#  61]+0.013*[#  11]+0.013*[#  31]+0.013*[#  51]
          +0.013*[#  71]+0.013*[#   1]+0.013*[#  81]+0.003*[#  50]+0.002*[#  98]
          +0.002*[# 134]+0.001*[# 109]+0.001*[# 113]+0.001*[# 145]+0.001*[# 149]
          
    |psi|^2 = 1.000
==== e(   8) =   -71.41189 eV ==== 
     psi = 0.912*[#  61]+0.011*[#  41]+0.008*[#   1]+0.009*[#  11]+0.009*[#  31]
          +0.009*[#  51]+0.009*[#  71]+0.008*[#  81]+0.003*[#  70]+0.002*[# 106]
          +0.002*[# 142]+0.001*[# 117]+0.001*[# 121]+0.001*[# 153]+0.001*[# 157]
          
    |psi|^2 = 1.000
==== e(   9) =   -58.31333 eV ==== 
     psi = 0.968*[#  21]+0.002*[#  30]+0.002*[# 126]+0.002*[# 162]+0.002*[#  93]
          +0.002*[# 101]+0.002*[# 129]+0.002*[# 137]+0.001*[#  92]+0.001*[# 100]
          +0.001*[# 124]+0.001*[# 128]+0.001*[# 136]+0.001*[# 160]
    |psi|^2 = 1.000
==== e(  10) =   -35.76808 eV ==== 
     psi = 0.164*[#  74]+0.162*[#  84]+0.122*[#  33]+0.122*[#  13]+0.121*[#   3]
          +0.120*[#  53]+0.042*[#  34]+0.041*[#   4]+0.041*[#  54]+0.040*[#  14]
          +0.003*[#  30]+0.003*[#  50]+0.001*[#  96]+0.001*[# 108]+0.001*[# 112]
          +0.001*[# 132]+0.001*[# 144]+0.001*[# 148]
    |psi|^2 = 1.000
==== e(  11) =   -35.76440 eV ==== 
     psi = 0.247*[#  44]+0.143*[#  43]+0.123*[#  84]+0.097*[#  13]+0.095*[#   3]
          +0.089*[#  53]+0.046*[#  74]+0.035*[#  54]+0.033*[#  33]+0.027*[#   4]
          +0.027*[#  14]+0.013*[#  34]+0.002*[#  96]+0.002*[# 112]+0.002*[# 132]
          +0.002*[# 148]+0.001*[#  95]+0.001*[# 111]+0.001*[# 131]+0.001*[# 147]
          
    |psi|^2 = 1.000
==== e(  12) =   -35.76436 eV ==== 
     psi = 0.245*[#  43]+0.149*[#  74]+0.142*[#  44]+0.108*[#  33]+0.071*[#  84]
          +0.057*[#  13]+0.054*[#   3]+0.054*[#  53]+0.041*[#  34]+0.020*[#  54]
          +0.017*[#  14]+0.016*[#   4]+0.003*[# 108]+0.003*[# 144]+0.001*[#  96]
          +0.001*[# 112]+0.001*[# 132]+0.001*[# 148]+0.001*[# 107]+0.001*[# 143]
          
    |psi|^2 = 1.000
==== e(  13) =   -35.75735 eV ==== 
     psi = 0.165*[#  83]+0.162*[#  73]+0.125*[#   4]+0.122*[#  34]+0.121*[#  54]
          +0.121*[#  14]+0.040*[#  33]+0.040*[#  13]+0.040*[#  53]+0.040*[#   3]
          +0.003*[#  70]+0.001*[#  30]
    |psi|^2 = 1.000
==== e(  14) =   -35.75293 eV ==== 
     psi = 0.224*[#  63]+0.175*[#   4]+0.124*[#  83]+0.104*[#  64]+0.093*[#  14]
          +0.073*[#  53]+0.051*[#  84]+0.037*[#  33]+0.034*[#  73]+0.020*[#  54]
          +0.014*[#  74]+0.012*[#  43]+0.010*[#  34]+0.005*[#  44]+0.003*[# 116]
          +0.003*[# 152]+0.001*[# 115]+0.001*[# 151]+0.001*[# 104]+0.001*[# 120]
          +0.001*[# 140]+0.001*[# 156]
    |psi|^2 = 1.000
==== e(  15) =   -35.75290 eV ==== 
     psi = 0.228*[#  64]+0.126*[#  33]+0.120*[#  14]+0.116*[#  73]+0.104*[#  63]
          +0.096*[#  53]+0.045*[#  74]+0.036*[#  34]+0.032*[#   4]+0.024*[#  54]
          +0.022*[#  83]+0.012*[#  44]+0.009*[#  84]+0.006*[#  43]+0.002*[# 104]
          +0.002*[# 120]+0.002*[# 140]+0.002*[# 156]+0.001*[# 103]+0.001*[# 119]
          +0.001*[# 139]+0.001*[# 155]
    |psi|^2 = 1.000
==== e(  16) =   -35.73075 eV ==== 
     psi = 0.184*[#  83]+0.116*[#  64]+0.113*[#   4]+0.079*[#  54]+0.078*[#   3]
          +0.073*[#  44]+0.070*[#  73]+0.058*[#  13]+0.053*[#  63]+0.046*[#  34]
          +0.033*[#  43]+0.031*[#  33]+0.027*[#  14]+0.007*[#  74]+0.007*[#  84]
          +0.006*[#  53]
    |psi|^2 = 1.000
==== e(  17) =   -35.73070 eV ==== 
     psi = 0.147*[#  34]+0.141*[#  73]+0.119*[#  63]+0.117*[#  54]+0.109*[#  14]
          +0.072*[#  43]+0.054*[#  64]+0.044*[#  13]+0.036*[#  53]+0.032*[#  44]
          +0.026*[#  83]+0.021*[#   4]+0.021*[#   3]+0.016*[#  74]+0.016*[#  84]
          +0.010*[#  33]
    |psi|^2 = 1.000
==== e(  18) =   -35.66160 eV ==== 
     psi = 0.141*[#  42]+0.131*[#  12]+0.131*[#  52]+0.128*[#   2]+0.128*[#  82]
          +0.113*[#  32]+0.113*[#  72]+0.095*[#  62]
    |psi|^2 = 1.000
==== e(  19) =   -35.65524 eV ==== 
     psi = 0.195*[#  74]+0.186*[#  34]+0.096*[#  13]+0.074*[#   3]+0.069*[#  33]
          +0.060*[#  73]+0.057*[#  53]+0.051*[#  54]+0.042*[#  84]+0.042*[#  83]
          +0.035*[#  64]+0.027*[#  44]+0.015*[#  63]+0.012*[#  14]+0.011*[#  43]
          +0.011*[#   4]
    |psi|^2 = 1.000
==== e(  20) =   -35.65509 eV ==== 
     psi = 0.200*[#   3]+0.181*[#  13]+0.178*[#  84]+0.152*[#  54]+0.038*[#  63]
          +0.034*[#  74]+0.033*[#  53]+0.029*[#  34]+0.028*[#  83]+0.027*[#  43]
          +0.024*[#  33]+0.018*[#  73]+0.016*[#  64]+0.012*[#  44]+0.006*[#   4]
          +0.004*[#  14]+0.001*[#   2]+0.001*[#  32]+0.001*[#  72]+0.001*[#  82]
          +0.001*[# 100]+0.001*[# 136]
    |psi|^2 = 1.000
==== e(  21) =   -35.62502 eV ==== 
     psi = 0.238*[#   2]+0.238*[#  82]+0.162*[#  12]+0.162*[#  52]+0.087*[#  32]
          +0.087*[#  72]+0.005*[#  42]+0.004*[#  62]
    |psi|^2 = 1.000
==== e(  22) =   -35.62416 eV ==== 
     psi = 0.313*[#  12]+0.313*[#  52]+0.080*[#   2]+0.080*[#  82]+0.069*[#  32]
          +0.069*[#  72]+0.042*[#  42]+0.015*[#  62]
    |psi|^2 = 1.000

 k =   0.0000000000  0.1283000598  0.0000000000
==== e(   1) =   -71.43733 eV ==== 
     psi = 0.141*[#  31]+0.141*[#  71]+0.140*[#   1]+0.140*[#  81]+0.139*[#  11]
          +0.139*[#  51]+0.096*[#  41]+0.033*[#  61]+0.005*[#  30]+0.002*[#  70]
          +0.001*[#  50]+0.001*[#  96]+0.001*[# 108]+0.001*[# 112]+0.001*[# 132]
          +0.001*[# 144]+0.001*[# 148]
    |psi|^2 = 1.000
==== e(   2) =   -71.42969 eV ==== 
     psi = 0.198*[#   1]+0.198*[#  81]+0.154*[#  31]+0.154*[#  71]+0.133*[#  11]
          +0.133*[#  51]+0.006*[#  41]+0.002*[#  61]
    |psi|^2 = 1.000
==== e(   3) =   -71.42950 eV ==== 
     psi = 0.191*[#  11]+0.191*[#  51]+0.160*[#  31]+0.160*[#  71]+0.138*[#   1]
          +0.138*[#  81]
    |psi|^2 = 1.000
==== e(   4) =   -71.42804 eV ==== 
     psi = 0.167*[#  31]+0.167*[#  71]+0.161*[#   1]+0.161*[#  81]+0.156*[#  11]
          +0.156*[#  51]+0.005*[#  41]+0.002*[#  61]
    |psi|^2 = 1.000
==== e(   5) =   -71.42786 eV ==== 
     psi = 0.168*[#  11]+0.168*[#  51]+0.168*[#  31]+0.168*[#  71]+0.152*[#   1]
          +0.152*[#  81]
    |psi|^2 = 1.000
==== e(   6) =   -71.42274 eV ==== 
     psi = 0.163*[#  11]+0.163*[#  51]+0.162*[#  31]+0.162*[#  71]+0.160*[#   1]
          +0.160*[#  81]+0.002*[#  10]+0.002*[#  20]+0.002*[#  40]+0.002*[#  60]
          +0.002*[#  80]+0.002*[#  90]
    |psi|^2 = 1.000
==== e(   7) =   -71.42103 eV ==== 
     psi = 0.857*[#  41]+0.025*[#  61]+0.017*[#   1]+0.017*[#  81]+0.015*[#  11]
          +0.015*[#  51]+0.014*[#  31]+0.014*[#  71]+0.003*[#  50]+0.002*[#  98]
          +0.002*[# 134]+0.001*[# 109]+0.001*[# 113]+0.001*[# 145]+0.001*[# 149]
          
    |psi|^2 = 1.000
==== e(   8) =   -71.41189 eV ==== 
     psi = 0.913*[#  61]+0.010*[#  41]+0.009*[#  11]+0.009*[#  51]+0.009*[#  31]
          +0.009*[#  71]+0.008*[#   1]+0.008*[#  81]+0.003*[#  70]+0.002*[# 106]
          +0.002*[# 142]+0.001*[# 117]+0.001*[# 121]+0.001*[# 153]+0.001*[# 157]
          
    |psi|^2 = 1.000
==== e(   9) =   -58.31333 eV ==== 
     psi = 0.968*[#  21]+0.002*[#  30]+0.002*[# 126]+0.002*[# 162]+0.002*[#  93]
          +0.002*[# 101]+0.002*[# 129]+0.002*[# 137]+0.001*[#  92]+0.001*[# 100]
          +0.001*[# 124]+0.001*[# 128]+0.001*[# 136]+0.001*[# 160]
    |psi|^2 = 1.000
==== e(  10) =   -35.78552 eV ==== 
     psi = 0.137*[#  44]+0.122*[#  84]+0.108*[#   4]+0.090*[#  53]+0.082*[#  43]
          +0.076*[#  33]+0.067*[#  74]+0.067*[#  14]+0.047*[#   3]+0.042*[#  13]
          +0.033*[#  83]+0.027*[#  73]+0.026*[#  64]+0.019*[#  34]+0.019*[#  54]
          +0.015*[#  63]+0.001*[#  96]+0.001*[# 112]+0.001*[# 132]+0.001*[# 148]
          +0.001*[#  50]
    |psi|^2 = 1.000
==== e(  11) =   -35.77180 eV ==== 
     psi = 0.124*[#  54]+0.102*[#  64]+0.093*[#  13]+0.089*[#   3]+0.087*[#  14]
          +0.081*[#  73]+0.066*[#  83]+0.062*[#  63]+0.059*[#  34]+0.057*[#  33]
          +0.056*[#  53]+0.039*[#  84]+0.035*[#  74]+0.016*[#   4]+0.005*[#  44]
          +0.004*[#  43]+0.002*[#  30]+0.001*[# 104]+0.001*[# 120]+0.001*[# 140]
          +0.001*[# 156]+0.001*[#  70]
    |psi|^2 = 1.000
==== e(  12) =   -35.77148 eV ==== 
     psi = 0.198*[#  43]+0.119*[#  44]+0.101*[#  33]+0.097*[#  74]+0.076*[#  53]
          +0.072*[#   4]+0.070*[#  84]+0.063*[#  14]+0.040*[#  63]+0.032*[#  83]
          +0.030*[#   3]+0.025*[#  64]+0.022*[#  13]+0.014*[#  73]+0.009*[#  34]
          +0.010*[#  54]+0.002*[# 108]+0.002*[# 144]
    |psi|^2 = 1.000
==== e(  13) =   -35.75795 eV ==== 
     psi = 0.134*[#  74]+0.120*[#  53]+0.104*[#  13]+0.099*[#  33]+0.096*[#   3]
          +0.082*[#  34]+0.072*[#  84]+0.056*[#  14]+0.047*[#  73]+0.040*[#  54]
          +0.040*[#  44]+0.034*[#  83]+0.024*[#  43]+0.012*[#  64]+0.010*[#   4]
          +0.007*[#  63]+0.002*[#  30]
    |psi|^2 = 1.000
==== e(  14) =   -35.75483 eV ==== 
     psi = 0.164*[#  63]+0.098*[#  64]+0.092*[#  34]+0.071*[#  83]+0.066*[#  54]
          +0.065*[#   4]+0.064*[#  74]+0.057*[#  73]+0.057*[#  13]+0.044*[#  14]
          +0.040*[#   3]+0.037*[#  43]+0.035*[#  53]+0.034*[#  84]+0.029*[#  33]
          +0.022*[#  44]+0.001*[# 116]+0.001*[# 152]
    |psi|^2 = 1.000
==== e(  15) =   -35.73794 eV ==== 
     psi = 0.141*[#  73]+0.128*[#  83]+0.123*[#   4]+0.086*[#  34]+0.065*[#  33]
          +0.057*[#   3]+0.052*[#  84]+0.050*[#  44]+0.045*[#  64]+0.045*[#  13]
          +0.042*[#  54]+0.040*[#  53]+0.038*[#  14]+0.030*[#  43]+0.027*[#  63]
          +0.010*[#  74]+0.001*[#  70]
    |psi|^2 = 1.000
==== e(  16) =   -35.72073 eV ==== 
     psi = 0.105*[#  73]+0.104*[#  63]+0.100*[#  14]+0.083*[#  34]+0.083*[#  43]
          +0.077*[#  54]+0.069*[#   4]+0.062*[#  64]+0.059*[#  83]+0.050*[#  44]
          +0.050*[#  53]+0.040*[#  33]+0.031*[#  84]+0.026*[#  13]+0.021*[#   3]
          +0.019*[#  74]
    |psi|^2 = 1.000
==== e(  17) =   -35.71646 eV ==== 
     psi = 0.124*[#  64]+0.102*[#  83]+0.094*[#  14]+0.087*[#   4]+0.081*[#  44]
          +0.077*[#  54]+0.074*[#  63]+0.053*[#  73]+0.049*[#  43]+0.048*[#  33]
          +0.048*[#  53]+0.039*[#   3]+0.031*[#  13]+0.027*[#  34]+0.024*[#  84]
          +0.021*[#  74]
    |psi|^2 = 1.000
==== e(  18) =   -35.66114 eV ==== 
     psi = 0.131*[#  12]+0.131*[#  52]+0.129*[#  42]+0.128*[#   2]+0.128*[#  82]
          +0.126*[#  32]+0.126*[#  72]+0.084*[#  62]
    |psi|^2 = 1.000
==== e(  19) =   -35.65334 eV ==== 
     psi = 0.151*[#  13]+0.134*[#   3]+0.113*[#  54]+0.110*[#  84]+0.104*[#  74]
          +0.101*[#  34]+0.050*[#  53]+0.039*[#  33]+0.037*[#  73]+0.033*[#  64]
          +0.032*[#  83]+0.026*[#  63]+0.020*[#  43]+0.017*[#  44]+0.012*[#  14]
          +0.008*[#   4]
    |psi|^2 = 1.000
==== e(  20) =   -35.65314 eV ==== 
     psi = 0.147*[#   3]+0.129*[#  13]+0.115*[#  74]+0.113*[#  84]+0.098*[#  34]
          +0.095*[#  54]+0.051*[#  33]+0.045*[#  83]+0.042*[#  53]+0.033*[#  73]
          +0.033*[#  63]+0.027*[#  64]+0.019*[#  44]+0.018*[#  43]+0.012*[#   4]
          +0.008*[#  14]
    |psi|^2 = 1.000
==== e(  21) =   -35.62840 eV ==== 
     psi = 0.225*[#  32]+0.225*[#  72]+0.181*[#  12]+0.181*[#  52]+0.075*[#   2]
          +0.075*[#  82]+0.015*[#  42]+0.006*[#  62]
    |psi|^2 = 1.000
==== e(  22) =   -35.62696 eV ==== 
     psi = 0.216*[#   2]+0.216*[#  82]+0.207*[#  12]+0.207*[#  52]+0.056*[#  32]
          +0.056*[#  72]+0.015*[#  42]+0.009*[#  62]
    |psi|^2 = 1.000

 k =   0.0000000000  0.2566001196  0.0000000000
==== e(   1) =   -71.43684 eV ==== 
     psi = 0.145*[#  31]+0.145*[#  71]+0.139*[#  11]+0.139*[#  51]+0.138*[#   1]
          +0.138*[#  81]+0.096*[#  41]+0.031*[#  61]+0.004*[#  30]+0.002*[#  70]
          +0.001*[#  50]+0.001*[#  96]+0.001*[# 108]+0.001*[# 112]+0.001*[# 132]
          +0.001*[# 144]+0.001*[# 148]
    |psi|^2 = 1.000
==== e(   2) =   -71.43085 eV ==== 
     psi = 0.187*[#   1]+0.187*[#  81]+0.149*[#  11]+0.149*[#  51]+0.140*[#  31]
          +0.140*[#  71]+0.018*[#  41]+0.007*[#  61]
    |psi|^2 = 1.000
==== e(   3) =   -71.43010 eV ==== 
     psi = 0.173*[#  11]+0.173*[#  51]+0.161*[#  31]+0.161*[#  71]+0.154*[#   1]
          +0.154*[#  81]
    |psi|^2 = 1.000
==== e(   4) =   -71.42761 eV ==== 
     psi = 0.175*[#  31]+0.175*[#  71]+0.160*[#  11]+0.160*[#  51]+0.139*[#   1]
          +0.139*[#  81]+0.019*[#  41]+0.006*[#  61]
    |psi|^2 = 1.000
==== e(   5) =   -71.42693 eV ==== 
     psi = 0.165*[#  31]+0.165*[#  71]+0.162*[#   1]+0.162*[#  81]+0.160*[#  11]
          +0.160*[#  51]
    |psi|^2 = 1.000
==== e(   6) =   -71.42306 eV ==== 
     psi = 0.164*[#  11]+0.164*[#  51]+0.162*[#  31]+0.162*[#  71]+0.160*[#   1]
          +0.160*[#  81]+0.002*[#  10]+0.002*[#  20]+0.002*[#  40]+0.002*[#  60]
          +0.002*[#  80]+0.002*[#  90]
    |psi|^2 = 1.000
==== e(   7) =   -71.42081 eV ==== 
     psi = 0.835*[#  41]+0.025*[#   1]+0.025*[#  81]+0.019*[#  11]+0.019*[#  51]
          +0.017*[#  31]+0.017*[#  71]+0.017*[#  61]+0.003*[#  50]+0.002*[#  98]
          +0.002*[# 134]+0.001*[# 109]+0.001*[# 113]+0.001*[# 145]+0.001*[# 149]
          
    |psi|^2 = 1.000
==== e(   8) =   -71.41187 eV ==== 
     psi = 0.914*[#  61]+0.009*[#  11]+0.009*[#  51]+0.009*[#  31]+0.009*[#  71]
          +0.008*[#   1]+0.008*[#  81]+0.007*[#  41]+0.003*[#  70]+0.002*[# 106]
          +0.002*[# 142]+0.001*[# 117]+0.001*[# 121]+0.001*[# 153]+0.001*[# 157]
          
    |psi|^2 = 1.000
==== e(   9) =   -58.31333 eV ==== 
     psi = 0.968*[#  21]+0.002*[#  30]+0.002*[# 126]+0.002*[# 162]+0.002*[#  93]
          +0.002*[# 101]+0.002*[# 129]+0.002*[# 137]+0.001*[#  92]+0.001*[# 100]
          +0.001*[# 124]+0.001*[# 128]+0.001*[# 136]+0.001*[# 160]
    |psi|^2 = 1.000
==== e(  10) =   -35.80503 eV ==== 
     psi = 0.132*[#  44]+0.118*[#   4]+0.099*[#  84]+0.082*[#  14]+0.081*[#  53]
          +0.079*[#  43]+0.067*[#  33]+0.053*[#  74]+0.048*[#  64]+0.047*[#  83]
          +0.038*[#  73]+0.029*[#  63]+0.028*[#   3]+0.026*[#  54]+0.025*[#  13]
          +0.024*[#  34]+0.001*[#  96]+0.001*[# 112]+0.001*[# 132]+0.001*[# 148]
          +0.001*[# 116]+0.001*[# 152]
    |psi|^2 = 1.000
==== e(  11) =   -35.78427 eV ==== 
     psi = 0.116*[#  54]+0.105*[#  64]+0.097*[#  13]+0.097*[#   3]+0.079*[#  14]
          +0.069*[#  73]+0.064*[#  63]+0.062*[#  33]+0.060*[#  53]+0.058*[#  84]
          +0.051*[#  83]+0.033*[#  34]+0.028*[#  44]+0.026*[#  74]+0.018*[#  43]
          +0.013*[#   4]+0.001*[#  30]+0.001*[# 104]+0.001*[# 120]+0.001*[# 140]
          +0.001*[# 156]
    |psi|^2 = 1.000
==== e(  12) =   -35.78307 eV ==== 
     psi = 0.168*[#  43]+0.102*[#  44]+0.097*[#   4]+0.092*[#  33]+0.086*[#  14]
          +0.082*[#  53]+0.067*[#  74]+0.065*[#  63]+0.064*[#  84]+0.049*[#  83]
          +0.040*[#  64]+0.027*[#  73]+0.017*[#   3]+0.011*[#  54]+0.007*[#  13]
          +0.002*[#  34]+0.001*[# 108]+0.001*[# 144]+0.001*[# 116]+0.001*[# 152]
          
    |psi|^2 = 1.000
==== e(  13) =   -35.75779 eV ==== 
     psi = 0.139*[#  63]+0.127*[#  34]+0.090*[#  74]+0.084*[#  54]+0.083*[#  64]
          +0.082*[#  13]+0.061*[#  73]+0.061*[#   3]+0.051*[#  43]+0.049*[#  83]
          +0.035*[#  84]+0.031*[#  44]+0.024*[#  33]+0.023*[#   4]+0.019*[#  14]
          +0.018*[#  53]+0.001*[# 108]+0.001*[# 144]
    |psi|^2 = 1.000
==== e(  14) =   -35.75718 eV ==== 
     psi = 0.148*[#  74]+0.127*[#  34]+0.107*[#  13]+0.101*[#  53]+0.097*[#   3]
          +0.090*[#  33]+0.069*[#  73]+0.069*[#  83]+0.049*[#  84]+0.042*[#  54]
          +0.035*[#  14]+0.021*[#   4]+0.011*[#  44]+0.006*[#  43]+0.004*[#  64]
          +0.002*[#  63]+0.001*[#  30]
    |psi|^2 = 1.000
==== e(  15) =   -35.72343 eV ==== 
     psi = 0.128*[#  73]+0.126*[#  83]+0.099*[#   4]+0.089*[#   3]+0.074*[#  34]
          +0.072*[#  13]+0.071*[#  33]+0.062*[#  84]+0.057*[#  53]+0.052*[#  54]
          +0.038*[#  14]+0.033*[#  44]+0.025*[#  64]+0.021*[#  43]+0.017*[#  74]
          +0.015*[#  63]+0.001*[#  70]+0.001*[#  50]
    |psi|^2 = 1.000
==== e(  16) =   -35.70224 eV ==== 
     psi = 0.098*[#  14]+0.097*[#  63]+0.096*[#  43]+0.091*[#  73]+0.081*[#   4]
          +0.063*[#  33]+0.059*[#  64]+0.059*[#  54]+0.058*[#  44]+0.058*[#  53]
          +0.056*[#  34]+0.056*[#  83]+0.044*[#  84]+0.028*[#  74]+0.019*[#  13]
          +0.018*[#   3]
    |psi|^2 = 1.000
==== e(  17) =   -35.68808 eV ==== 
     psi = 0.111*[#  64]+0.106*[#  44]+0.104*[#  14]+0.091*[#   4]+0.074*[#  83]
          +0.066*[#  63]+0.065*[#  53]+0.065*[#  33]+0.065*[#  43]+0.056*[#  54]
          +0.044*[#  73]+0.042*[#  84]+0.036*[#  74]+0.025*[#   3]+0.017*[#  13]
          +0.015*[#  34]
    |psi|^2 = 1.000
==== e(  18) =   -35.65918 eV ==== 
     psi = 0.146*[#  42]+0.142*[#  32]+0.142*[#  72]+0.125*[#  12]+0.125*[#  52]
          +0.114*[#   2]+0.114*[#  82]+0.074*[#  62]
    |psi|^2 = 1.000
==== e(  19) =   -35.64755 eV ==== 
     psi = 0.162*[#   3]+0.145*[#  13]+0.130*[#  84]+0.115*[#  54]+0.071*[#  74]
          +0.064*[#  34]+0.046*[#  63]+0.046*[#  83]+0.043*[#  53]+0.034*[#  33]
          +0.031*[#  64]+0.027*[#  43]+0.026*[#  73]+0.017*[#  44]+0.015*[#   4]
          +0.013*[#  14]
    |psi|^2 = 1.000
==== e(  20) =   -35.64689 eV ==== 
     psi = 0.137*[#  34]+0.135*[#  74]+0.124*[#  13]+0.101*[#   3]+0.098*[#  54]
          +0.080*[#  84]+0.047*[#  73]+0.045*[#  64]+0.044*[#  33]+0.042*[#  53]
          +0.036*[#  83]+0.028*[#  63]+0.021*[#  44]+0.016*[#  14]+0.016*[#   4]
          +0.014*[#  43]
    |psi|^2 = 1.000
==== e(  21) =   -35.63388 eV ==== 
     psi = 0.162*[#   2]+0.162*[#  82]+0.157*[#  12]+0.157*[#  52]+0.111*[#  32]
          +0.111*[#  72]+0.090*[#  42]+0.033*[#  62]
    |psi|^2 = 1.000
==== e(  22) =   -35.62988 eV ==== 
     psi = 0.193*[#   2]+0.193*[#  82]+0.149*[#  32]+0.149*[#  72]+0.146*[#  12]
          +0.146*[#  52]+0.003*[#  42]+0.003*[#  62]
    |psi|^2 = 1.000

 k =   0.0000000000  0.3849001795  0.0000000000
==== e(   1) =   -71.43607 eV ==== 
     psi = 0.155*[#  31]+0.155*[#  71]+0.138*[#  11]+0.138*[#  51]+0.130*[#   1]
          +0.130*[#  81]+0.098*[#  41]+0.026*[#  61]+0.003*[#  30]+0.001*[#  70]
          +0.001*[#  50]+0.001*[# 108]+0.001*[# 144]+0.001*[#  96]+0.001*[# 112]
          +0.001*[# 132]+0.001*[# 148]
    |psi|^2 = 1.000
==== e(   2) =   -71.43211 eV ==== 
     psi = 0.192*[#   1]+0.192*[#  81]+0.151*[#  11]+0.151*[#  51]+0.123*[#  31]
          +0.123*[#  71]+0.027*[#  41]+0.015*[#  61]+0.002*[#  30]
    |psi|^2 = 1.000
==== e(   3) =   -71.43052 eV ==== 
     psi = 0.170*[#  11]+0.170*[#  51]+0.161*[#  31]+0.161*[#  71]+0.157*[#   1]
          +0.157*[#  81]
    |psi|^2 = 1.000
==== e(   4) =   -71.42737 eV ==== 
     psi = 0.179*[#  31]+0.179*[#  71]+0.158*[#  11]+0.158*[#  51]+0.129*[#   1]
          +0.129*[#  81]+0.033*[#  41]+0.010*[#  61]+0.001*[#  30]
    |psi|^2 = 1.000
==== e(   5) =   -71.42599 eV ==== 
     psi = 0.165*[#  31]+0.165*[#  71]+0.164*[#   1]+0.164*[#  81]+0.159*[#  11]
          +0.159*[#  51]
    |psi|^2 = 1.000
==== e(   6) =   -71.42358 eV ==== 
     psi = 0.165*[#  11]+0.165*[#  51]+0.162*[#  31]+0.162*[#  71]+0.160*[#   1]
          +0.160*[#  81]+0.002*[#  10]+0.002*[#  20]+0.002*[#  40]+0.002*[#  60]
          +0.002*[#  80]+0.002*[#  90]
    |psi|^2 = 1.000
==== e(   7) =   -71.42058 eV ==== 
     psi = 0.814*[#  41]+0.033*[#   1]+0.033*[#  81]+0.023*[#  11]+0.023*[#  51]
          +0.020*[#  31]+0.020*[#  71]+0.008*[#  61]+0.004*[#  50]+0.002*[#  98]
          +0.002*[# 134]+0.001*[# 109]+0.001*[# 113]+0.001*[# 145]+0.001*[# 149]
          
    |psi|^2 = 1.000
==== e(   8) =   -71.41186 eV ==== 
     psi = 0.915*[#  61]+0.010*[#  11]+0.010*[#  51]+0.009*[#  31]+0.009*[#  71]
          +0.008*[#   1]+0.008*[#  81]+0.004*[#  41]+0.003*[#  70]+0.002*[# 106]
          +0.002*[# 142]+0.001*[# 117]+0.001*[# 121]+0.001*[# 153]+0.001*[# 157]
          
    |psi|^2 = 1.000
==== e(   9) =   -58.31333 eV ==== 
     psi = 0.968*[#  21]+0.003*[#  30]+0.002*[# 126]+0.002*[# 162]+0.002*[#  93]
          +0.002*[# 101]+0.002*[# 129]+0.002*[# 137]+0.001*[#  92]+0.001*[# 100]
          +0.001*[# 124]+0.001*[# 128]+0.001*[# 136]+0.001*[# 160]
    |psi|^2 = 1.000
==== e(  10) =   -35.81930 eV ==== 
     psi = 0.127*[#  44]+0.119*[#   4]+0.090*[#  84]+0.089*[#  14]+0.078*[#  53]
          +0.076*[#  43]+0.064*[#  33]+0.056*[#  64]+0.052*[#  83]+0.049*[#  74]
          +0.042*[#  73]+0.034*[#  63]+0.030*[#  54]+0.026*[#  34]+0.023*[#   3]
          +0.020*[#  13]+0.001*[#  96]+0.001*[# 112]+0.001*[# 116]+0.001*[# 132]
          +0.001*[# 148]+0.001*[# 152]
    |psi|^2 = 1.000
==== e(  11) =   -35.79333 eV ==== 
     psi = 0.112*[#  54]+0.105*[#  64]+0.098*[#   3]+0.097*[#  13]+0.074*[#  14]
          +0.065*[#  73]+0.065*[#  84]+0.063*[#  63]+0.061*[#  33]+0.059*[#  53]
          +0.048*[#  83]+0.041*[#  44]+0.026*[#  34]+0.025*[#  43]+0.022*[#  74]
          +0.016*[#   4]+0.001*[# 104]+0.001*[# 120]+0.001*[# 140]+0.001*[# 156]
          
    |psi|^2 = 1.000
==== e(  12) =   -35.79221 eV ==== 
     psi = 0.156*[#  43]+0.103*[#   4]+0.094*[#  44]+0.093*[#  14]+0.088*[#  33]
          +0.082*[#  53]+0.075*[#  63]+0.061*[#  84]+0.058*[#  74]+0.056*[#  83]
          +0.045*[#  64]+0.033*[#  73]+0.013*[#  54]+0.013*[#   3]+0.003*[#  13]
          +0.003*[#  34]+0.001*[# 116]+0.001*[# 152]+0.001*[# 108]+0.001*[# 144]
          
    |psi|^2 = 1.000
==== e(  13) =   -35.76073 eV ==== 
     psi = 0.129*[#  34]+0.129*[#  63]+0.094*[#  13]+0.093*[#  54]+0.092*[#  74]
          +0.077*[#  64]+0.071*[#   3]+0.059*[#  73]+0.056*[#  43]+0.044*[#  83]
          +0.040*[#  84]+0.034*[#  44]+0.021*[#  33]+0.013*[#  53]+0.013*[#   4]
          +0.012*[#  14]+0.001*[# 108]+0.001*[# 144]
    |psi|^2 = 1.000
==== e(  14) =   -35.75759 eV ==== 
     psi = 0.153*[#  74]+0.144*[#  34]+0.105*[#  13]+0.096*[#   3]+0.094*[#  53]
          +0.088*[#  33]+0.079*[#  73]+0.078*[#  83]+0.042*[#  84]+0.039*[#  54]
          +0.029*[#  14]+0.024*[#   4]+0.003*[#  44]+0.002*[#  43]+0.001*[#  64]
          
    |psi|^2 = 1.000
==== e(  15) =   -35.71288 eV ==== 
     psi = 0.126*[#  73]+0.125*[#  83]+0.099*[#   3]+0.085*[#   4]+0.083*[#  13]
          +0.082*[#  33]+0.077*[#  34]+0.072*[#  53]+0.059*[#  84]+0.055*[#  54]
          +0.045*[#  14]+0.033*[#  74]+0.013*[#  44]+0.010*[#  64]+0.008*[#  43]
          +0.006*[#  63]+0.001*[#  70]+0.001*[#  30]+0.001*[#  50]
    |psi|^2 = 1.000
==== e(  16) =   -35.68384 eV ==== 
     psi = 0.103*[#  43]+0.089*[#  14]+0.089*[#  73]+0.087*[#  63]+0.079*[#  33]
          +0.077*[#   4]+0.061*[#  44]+0.057*[#  53]+0.056*[#  54]+0.054*[#  84]
          +0.053*[#  64]+0.048*[#  83]+0.045*[#  34]+0.036*[#  74]+0.025*[#   3]
          +0.024*[#  13]
    |psi|^2 = 1.000
==== e(  17) =   -35.65939 eV ==== 
     psi = 0.128*[#  44]+0.103*[#  64]+0.082*[#  14]+0.076*[#  43]+0.075*[#   4]
          +0.073*[#  53]+0.072*[#  33]+0.064*[#  84]+0.062*[#  63]+0.053*[#  74]
          +0.050*[#  83]+0.038*[#   3]+0.037*[#  54]+0.032*[#  73]+0.028*[#  13]
          +0.012*[#  34]
    |psi|^2 = 1.000
==== e(  18) =   -35.65632 eV ==== 
     psi = 0.146*[#  42]+0.142*[#  32]+0.142*[#  72]+0.125*[#  12]+0.125*[#  52]
          +0.116*[#   2]+0.116*[#  82]+0.071*[#  62]
    |psi|^2 = 1.000
==== e(  19) =   -35.64074 eV ==== 
     psi = 0.134*[#   3]+0.128*[#  13]+0.110*[#  84]+0.100*[#  54]+0.067*[#  63]
          +0.066*[#  34]+0.059*[#  74]+0.059*[#  53]+0.054*[#  83]+0.040*[#  64]
          +0.032*[#  14]+0.031*[#  73]+0.030*[#   4]+0.030*[#  43]+0.024*[#  33]
          +0.020*[#  44]
    |psi|^2 = 1.000
==== e(  20) =   -35.63965 eV ==== 
     psi = 0.189*[#   2]+0.189*[#  82]+0.140*[#  12]+0.140*[#  52]+0.087*[#  32]
          +0.087*[#  72]+0.082*[#  42]+0.066*[#  62]
    |psi|^2 = 1.000
==== e(  21) =   -35.63549 eV ==== 
     psi = 0.132*[#  34]+0.117*[#  54]+0.116*[#  74]+0.111*[#  13]+0.090*[#   3]
          +0.077*[#  84]+0.056*[#  73]+0.054*[#  83]+0.041*[#   4]+0.040*[#  33]
          +0.039*[#  14]+0.039*[#  64]+0.033*[#  53]+0.024*[#  63]+0.004*[#  44]
          +0.004*[#  42]+0.002*[#  43]+0.002*[#  32]+0.002*[#  72]+0.001*[#   2]
          +0.001*[#  82]
    |psi|^2 = 1.000
==== e(  22) =   -35.63157 eV ==== 
     psi = 0.188*[#  12]+0.188*[#  52]+0.157*[#  32]+0.157*[#  72]+0.143*[#   2]
          +0.143*[#  82]+0.004*[#  42]
    |psi|^2 = 1.000

 k =   0.0000000000  0.5132002393  0.0000000000
==== e(   1) =   -71.43521 eV ==== 
     psi = 0.181*[#  31]+0.181*[#  71]+0.135*[#  11]+0.135*[#  51]+0.111*[#  41]
          +0.105*[#   1]+0.105*[#  81]+0.020*[#  61]+0.001*[# 108]+0.001*[# 144]
          +0.001*[#  30]+0.001*[#  50]+0.001*[#  96]+0.001*[# 112]+0.001*[# 132]
          +0.001*[# 148]
    |psi|^2 = 1.000
==== e(   2) =   -71.43324 eV ==== 
     psi = 0.216*[#   1]+0.216*[#  81]+0.155*[#  11]+0.155*[#  51]+0.094*[#  31]
          +0.094*[#  71]+0.024*[#  61]+0.019*[#  41]+0.004*[#  30]+0.001*[# 116]
          +0.001*[# 152]
    |psi|^2 = 1.000
==== e(   3) =   -71.43074 eV ==== 
     psi = 0.169*[#  11]+0.169*[#  51]+0.162*[#  31]+0.162*[#  71]+0.158*[#   1]
          +0.158*[#  81]
    |psi|^2 = 1.000
==== e(   4) =   -71.42726 eV ==== 
     psi = 0.180*[#  31]+0.180*[#  71]+0.156*[#  11]+0.156*[#  51]+0.124*[#   1]
          +0.124*[#  81]+0.040*[#  41]+0.013*[#  61]+0.002*[#  30]
    |psi|^2 = 1.000
==== e(   5) =   -71.42509 eV ==== 
     psi = 0.168*[#   1]+0.168*[#  81]+0.166*[#  31]+0.166*[#  71]+0.153*[#  11]
          +0.153*[#  51]+0.001*[#  10]+0.001*[#  40]+0.001*[#  80]+0.001*[#  90]
          +0.001*[#  20]+0.001*[#  60]
    |psi|^2 = 1.000
==== e(   6) =   -71.42427 eV ==== 
     psi = 0.170*[#  11]+0.170*[#  51]+0.160*[#  31]+0.160*[#  71]+0.156*[#   1]
          +0.156*[#  81]+0.002*[#  20]+0.001*[#  40]+0.002*[#  60]+0.001*[#  10]
          +0.001*[#  80]+0.001*[#  90]
    |psi|^2 = 1.000
==== e(   7) =   -71.42043 eV ==== 
     psi = 0.802*[#  41]+0.038*[#   1]+0.038*[#  81]+0.025*[#  11]+0.025*[#  51]
          +0.022*[#  31]+0.022*[#  71]+0.004*[#  50]+0.002*[#  61]+0.002*[#  98]
          +0.002*[# 134]+0.001*[# 109]+0.001*[# 113]+0.001*[# 145]+0.001*[# 149]
          
    |psi|^2 = 1.000
==== e(   8) =   -71.41184 eV ==== 
     psi = 0.916*[#  61]+0.011*[#  11]+0.011*[#  51]+0.009*[#  31]+0.009*[#  71]
          +0.008*[#   1]+0.008*[#  81]+0.003*[#  70]+0.002*[# 106]+0.002*[# 142]
          +0.001*[#  41]+0.001*[# 117]+0.001*[# 121]+0.001*[# 153]+0.001*[# 157]
          
    |psi|^2 = 1.000
==== e(   9) =   -58.31333 eV ==== 
     psi = 0.968*[#  21]+0.003*[#  30]+0.002*[# 126]+0.002*[# 162]+0.002*[#  93]
          +0.002*[# 101]+0.002*[# 129]+0.002*[# 137]+0.001*[#  92]+0.001*[# 100]
          +0.001*[# 124]+0.001*[# 128]+0.001*[# 136]+0.001*[# 160]
    |psi|^2 = 1.000
==== e(  10) =   -35.82669 eV ==== 
     psi = 0.123*[#  44]+0.118*[#   4]+0.091*[#  14]+0.087*[#  84]+0.077*[#  53]
          +0.074*[#  43]+0.064*[#  33]+0.059*[#  64]+0.053*[#  83]+0.048*[#  74]
          +0.043*[#  73]+0.035*[#  63]+0.033*[#  54]+0.028*[#  34]+0.022*[#   3]
          +0.019*[#  13]+0.001*[#  96]+0.001*[# 112]+0.001*[# 116]+0.001*[# 132]
          +0.001*[# 148]+0.001*[# 152]+0.001*[# 104]+0.001*[# 120]+0.001*[# 140]
          +0.001*[# 156]
    |psi|^2 = 1.000
==== e(  11) =   -35.79804 eV ==== 
     psi = 0.110*[#  54]+0.105*[#  64]+0.099*[#   3]+0.096*[#  13]+0.072*[#  14]
          +0.069*[#  84]+0.064*[#  73]+0.063*[#  63]+0.060*[#  33]+0.058*[#  53]
          +0.046*[#  83]+0.045*[#  44]+0.026*[#  43]+0.025*[#  34]+0.020*[#  74]
          +0.017*[#   4]+0.001*[# 104]+0.001*[# 120]+0.001*[# 140]+0.001*[# 156]
          
    |psi|^2 = 1.000
==== e(  12) =   -35.79704 eV ==== 
     psi = 0.153*[#  43]+0.106*[#   4]+0.093*[#  14]+0.091*[#  44]+0.087*[#  33]
          +0.081*[#  53]+0.078*[#  63]+0.059*[#  83]+0.058*[#  84]+0.055*[#  74]
          +0.047*[#  64]+0.036*[#  73]+0.014*[#  54]+0.011*[#   3]+0.004*[#  34]
          +0.002*[#  13]+0.002*[# 116]+0.002*[# 152]+0.001*[# 108]+0.001*[# 144]
          
    |psi|^2 = 1.000
==== e(  13) =   -35.76245 eV ==== 
     psi = 0.130*[#  34]+0.126*[#  63]+0.097*[#  13]+0.095*[#  54]+0.093*[#  74]
          +0.076*[#  64]+0.073*[#   3]+0.059*[#  43]+0.058*[#  73]+0.042*[#  84]
          +0.041*[#  83]+0.035*[#  44]+0.021*[#  33]+0.012*[#  53]+0.010*[#  14]
          +0.010*[#   4]+0.001*[# 108]+0.001*[# 144]
    |psi|^2 = 1.000
==== e(  14) =   -35.75791 eV ==== 
     psi = 0.154*[#  74]+0.148*[#  34]+0.104*[#  13]+0.096*[#   3]+0.092*[#  53]
          +0.087*[#  33]+0.082*[#  73]+0.081*[#  83]+0.041*[#  84]+0.039*[#  54]
          +0.027*[#  14]+0.025*[#   4]+0.001*[#  44]
    |psi|^2 = 1.000
==== e(  15) =   -35.70745 eV ==== 
     psi = 0.126*[#  73]+0.126*[#  83]+0.102*[#   3]+0.087*[#  13]+0.086*[#  33]
          +0.084*[#  34]+0.083*[#  53]+0.079*[#   4]+0.055*[#  84]+0.054*[#  54]
          +0.050*[#  14]+0.043*[#  74]+0.002*[#  30]+0.002*[#  64]+0.001*[#  44]
          +0.001*[#  70]+0.001*[#  50]+0.001*[#  63]
    |psi|^2 = 1.000
==== e(  16) =   -35.67092 eV ==== 
     psi = 0.108*[#  43]+0.097*[#  73]+0.095*[#  33]+0.074*[#  63]+0.072*[#  14]
          +0.065*[#  44]+0.064*[#  84]+0.062*[#  54]+0.059*[#   4]+0.048*[#  53]
          +0.044*[#  34]+0.042*[#  64]+0.041*[#  74]+0.040*[#   3]+0.038*[#  13]
          +0.034*[#  83]
    |psi|^2 = 1.000
==== e(  17) =   -35.65282 eV ==== 
     psi = 0.198*[#  42]+0.160*[#  32]+0.160*[#  72]+0.115*[#  12]+0.115*[#  52]
          +0.082*[#   2]+0.082*[#  82]+0.066*[#  62]
    |psi|^2 = 1.000
==== e(  18) =   -35.64393 eV ==== 
     psi = 0.177*[#   2]+0.177*[#  82]+0.172*[#  12]+0.172*[#  52]+0.091*[#  62]
          +0.073*[#  32]+0.073*[#  72]+0.044*[#  42]
    |psi|^2 = 1.000
==== e(  19) =   -35.63954 eV ==== 
     psi = 0.106*[#  84]+0.101*[#   3]+0.097*[#  74]+0.095*[#  13]+0.094*[#  44]
          +0.090*[#  64]+0.068*[#  53]+0.065*[#  33]+0.059*[#  63]+0.056*[#  43]
          +0.051*[#  54]+0.042*[#  34]+0.023*[#  14]+0.016*[#   4]+0.012*[#  83]
          +0.009*[#  73]+0.001*[#  62]
    |psi|^2 = 1.000
==== e(  20) =   -35.63484 eV ==== 
     psi = 0.111*[#  63]+0.081*[#  34]+0.080*[#  53]+0.079*[#  74]+0.074*[#  83]
          +0.072*[#   4]+0.071*[#  14]+0.066*[#  64]+0.063*[#   3]+0.062*[#  84]
          +0.056*[#  13]+0.047*[#  54]+0.042*[#  43]+0.029*[#  73]+0.027*[#  33]
          +0.023*[#  44]
    |psi|^2 = 1.000
==== e(  21) =   -35.63216 eV ==== 
     psi = 0.183*[#  12]+0.183*[#  52]+0.156*[#  32]+0.156*[#  72]+0.148*[#   2]
          +0.148*[#  82]+0.002*[#  42]+0.001*[#  53]+0.001*[#  63]
    |psi|^2 = 1.000
==== e(  22) =   -35.62072 eV ==== 
     psi = 0.127*[#   2]+0.127*[#  82]+0.114*[#  12]+0.114*[#  52]+0.104*[#  42]
          +0.094*[#  32]+0.094*[#  72]+0.042*[#  62]+0.023*[#  54]+0.018*[#   4]
          +0.018*[#  34]+0.017*[#  14]+0.016*[#  73]+0.013*[#  83]+0.012*[#  13]
          +0.012*[#  74]+0.010*[#  33]+0.010*[#  84]+0.005*[#   3]+0.005*[#  53]
          +0.004*[#  44]+0.002*[#  64]+0.002*[#  43]+0.001*[#  63]
    |psi|^2 = 1.000

 k =   0.1111111111  0.1924500897  0.0000000000
==== e(   1) =   -71.43700 eV ==== 
     psi = 0.146*[#  31]+0.146*[#  71]+0.139*[#  11]+0.139*[#  51]+0.136*[#   1]
          +0.136*[#  81]+0.096*[#  41]+0.031*[#  61]+0.005*[#  30]+0.002*[#  70]
          +0.001*[#  50]+0.001*[#  96]+0.001*[# 108]+0.001*[# 112]+0.001*[# 132]
          +0.001*[# 144]+0.001*[# 148]
    |psi|^2 = 1.000
==== e(   2) =   -71.43037 eV ==== 
     psi = 0.324*[#   1]+0.324*[#  81]+0.128*[#  11]+0.128*[#  51]+0.026*[#  31]
          +0.026*[#  71]+0.016*[#  41]+0.005*[#  61]+0.001*[# 116]+0.001*[# 152]
          
    |psi|^2 = 1.000
==== e(   3) =   -71.43016 eV ==== 
     psi = 0.278*[#  31]+0.278*[#  71]+0.193*[#  11]+0.193*[#  51]+0.017*[#   1]
          +0.017*[#  81]+0.002*[#  61]
    |psi|^2 = 1.000
==== e(   4) =   -71.42749 eV ==== 
     psi = 0.263*[#   1]+0.263*[#  81]+0.206*[#  11]+0.206*[#  51]+0.012*[#  41]
          +0.010*[#  31]+0.010*[#  71]+0.004*[#  61]
    |psi|^2 = 1.000
==== e(   5) =   -71.42736 eV ==== 
     psi = 0.330*[#  31]+0.330*[#  71]+0.118*[#  11]+0.118*[#  51]+0.039*[#   1]
          +0.039*[#  81]+0.001*[#  40]+0.001*[#  80]
    |psi|^2 = 1.000
==== e(   6) =   -71.42296 eV ==== 
     psi = 0.163*[#  11]+0.163*[#  51]+0.162*[#   1]+0.162*[#  81]+0.161*[#  31]
          +0.161*[#  71]+0.002*[#  10]+0.002*[#  20]+0.002*[#  40]+0.002*[#  60]
          +0.002*[#  80]+0.002*[#  90]
    |psi|^2 = 1.000
==== e(   7) =   -71.42087 eV ==== 
     psi = 0.841*[#  41]+0.026*[#   1]+0.026*[#  81]+0.019*[#  61]+0.017*[#  11]
          +0.017*[#  51]+0.014*[#  31]+0.014*[#  71]+0.003*[#  50]+0.002*[#  98]
          +0.002*[# 134]+0.001*[# 109]+0.001*[# 113]+0.001*[# 145]+0.001*[# 149]
          
    |psi|^2 = 1.000
==== e(   8) =   -71.41188 eV ==== 
     psi = 0.913*[#  61]+0.010*[#  11]+0.010*[#  51]+0.009*[#  31]+0.009*[#  71]
          +0.008*[#   1]+0.008*[#  81]+0.008*[#  41]+0.003*[#  70]+0.002*[# 106]
          +0.002*[# 142]+0.001*[# 117]+0.001*[# 121]+0.001*[# 153]+0.001*[# 157]
          
    |psi|^2 = 1.000
==== e(   9) =   -58.31333 eV ==== 
     psi = 0.968*[#  21]+0.002*[#  30]+0.002*[# 126]+0.002*[# 162]+0.002*[#  93]
          +0.002*[# 101]+0.002*[# 129]+0.002*[# 137]+0.001*[#  92]+0.001*[# 100]
          +0.001*[# 124]+0.001*[# 128]+0.001*[# 136]+0.001*[# 160]
    |psi|^2 = 1.000
==== e(  10) =   -35.79883 eV ==== 
     psi = 0.166*[#   4]+0.163*[#  44]+0.155*[#  84]+0.061*[#  83]+0.058*[#  43]
          +0.057*[#  53]+0.050*[#   3]+0.048*[#  14]+0.043*[#  33]+0.034*[#  73]
          +0.032*[#  64]+0.032*[#  13]+0.024*[#  63]+0.023*[#  54]+0.020*[#  74]
          +0.010*[#  34]+0.002*[#  96]+0.002*[# 112]+0.002*[# 132]+0.002*[# 148]
          +0.001*[# 116]+0.001*[# 152]
    |psi|^2 = 1.000
==== e(  11) =   -35.78821 eV ==== 
     psi = 0.162*[#  14]+0.113*[#  64]+0.108*[#  53]+0.092*[#  43]+0.089*[#  54]
          +0.078*[#  74]+0.067*[#  33]+0.050*[#  44]+0.038*[#  63]+0.038*[#  34]
          +0.035*[#  13]+0.034*[#  84]+0.032*[#   3]+0.026*[#  73]+0.008*[#   4]
          +0.006*[#  83]+0.001*[# 104]+0.001*[# 120]+0.001*[# 140]+0.001*[# 156]
          +0.001*[# 108]+0.001*[# 144]
    |psi|^2 = 1.000
==== e(  12) =   -35.77331 eV ==== 
     psi = 0.136*[#  33]+0.108*[#  43]+0.099*[#  54]+0.097*[#  13]+0.074*[#  74]
          +0.071*[#  73]+0.070*[#   3]+0.061*[#  63]+0.051*[#  83]+0.050*[#  64]
          +0.046*[#  84]+0.037*[#  44]+0.027*[#   4]+0.021*[#  14]+0.019*[#  53]
          +0.009*[#  34]+0.001*[# 108]+0.001*[# 144]
    |psi|^2 = 1.000
==== e(  13) =   -35.75922 eV ==== 
     psi = 0.176*[#  63]+0.123*[#  83]+0.097*[#  53]+0.097*[#  13]+0.096*[#   3]
          +0.074*[#  43]+0.060*[#  64]+0.052*[#   4]+0.040*[#  34]+0.039*[#  73]
          +0.033*[#  14]+0.032*[#  54]+0.026*[#  84]+0.025*[#  44]+0.004*[#  74]
          +0.003*[#  33]+0.001*[# 116]+0.001*[# 152]+0.001*[#  40]+0.001*[#  80]
          
    |psi|^2 = 1.000
==== e(  14) =   -35.75539 eV ==== 
     psi = 0.232*[#  74]+0.195*[#  34]+0.103*[#  33]+0.092*[#  53]+0.065*[#  73]
          +0.061*[#  14]+0.051*[#   3]+0.036*[#  83]+0.035*[#  84]+0.033*[#  13]
          +0.025*[#  44]+0.020*[#   4]+0.011*[#  64]+0.010*[#  43]+0.006*[#  63]
          +0.002*[#  54]+0.002*[# 108]+0.002*[# 144]+0.001*[#  30]
    |psi|^2 = 1.000
==== e(  15) =   -35.72942 eV ==== 
     psi = 0.197*[#  73]+0.129*[#  34]+0.098*[#  13]+0.090*[#  83]+0.078*[#   4]
          +0.076*[#  54]+0.070*[#  33]+0.065*[#   3]+0.053*[#  84]+0.029*[#  64]
          +0.024*[#  44]+0.023*[#  53]+0.023*[#  63]+0.022*[#  43]+0.003*[#  74]
          +0.001*[#  70]+0.001*[#  14]
    |psi|^2 = 1.000
==== e(  16) =   -35.70278 eV ==== 
     psi = 0.138*[#   4]+0.122*[#  44]+0.110*[#  63]+0.105*[#  83]+0.104*[#  33]
          +0.101*[#  73]+0.072*[#  43]+0.040*[#  84]+0.039*[#  74]+0.037*[#  64]
          +0.035*[#  34]+0.031*[#  14]+0.029*[#  53]+0.007*[#   3]+0.007*[#  54]
          +0.005*[#  13]+0.001*[# 116]+0.001*[# 152]
    |psi|^2 = 1.000
==== e(  17) =   -35.69889 eV ==== 
     psi = 0.183*[#  14]+0.144*[#  64]+0.116*[#  54]+0.093*[#  53]+0.071*[#  43]
          +0.063*[#   3]+0.062*[#  84]+0.053*[#  44]+0.052*[#  83]+0.050*[#   4]
          +0.048*[#  63]+0.026*[#  13]+0.010*[#  33]+0.008*[#  74]+0.002*[#  73]
          
    |psi|^2 = 1.000
==== e(  18) =   -35.65984 eV ==== 
     psi = 0.144*[#  42]+0.140*[#  32]+0.140*[#  72]+0.123*[#  12]+0.123*[#  52]
          +0.112*[#   2]+0.112*[#  82]+0.087*[#  62]
    |psi|^2 = 1.000
==== e(  19) =   -35.64977 eV ==== 
     psi = 0.211*[#  74]+0.206*[#  34]+0.074*[#  13]+0.072*[#  33]+0.067*[#  73]
          +0.061*[#   3]+0.050*[#  53]+0.045*[#  83]+0.043*[#  64]+0.036*[#  54]
          +0.030*[#  44]+0.028*[#  84]+0.025*[#  63]+0.013*[#  43]+0.012*[#   4]
          +0.012*[#  14]
    |psi|^2 = 1.000
==== e(  20) =   -35.64859 eV ==== 
     psi = 0.200*[#  13]+0.200*[#   3]+0.184*[#  84]+0.177*[#  54]+0.044*[#  63]
          +0.036*[#  53]+0.032*[#  83]+0.027*[#  64]+0.025*[#  43]+0.016*[#   4]
          +0.013*[#  14]+0.011*[#  44]+0.007*[#  73]+0.006*[#  33]+0.003*[#  34]
          +0.003*[#  74]+0.001*[# 100]+0.001*[# 136]
    |psi|^2 = 1.000
==== e(  21) =   -35.63127 eV ==== 
     psi = 0.213*[#   2]+0.213*[#  82]+0.182*[#  12]+0.182*[#  52]+0.093*[#  42]
          +0.045*[#  62]+0.027*[#  32]+0.027*[#  72]
    |psi|^2 = 1.000
==== e(  22) =   -35.62984 eV ==== 
     psi = 0.233*[#  32]+0.233*[#  72]+0.165*[#  12]+0.165*[#  52]+0.074*[#   2]
          +0.074*[#  82]+0.026*[#  42]+0.012*[#  62]
    |psi|^2 = 1.000

 k =   0.1111111111  0.3207501495  0.0000000000
==== e(   1) =   -71.43636 eV ==== 
     psi = 0.156*[#  31]+0.156*[#  71]+0.138*[#  11]+0.138*[#  51]+0.129*[#   1]
          +0.129*[#  81]+0.097*[#  41]+0.028*[#  61]+0.004*[#  30]+0.001*[#  70]
          +0.001*[#  50]+0.001*[# 108]+0.001*[# 144]+0.001*[#  96]+0.001*[# 112]
          +0.001*[# 132]+0.001*[# 148]
    |psi|^2 = 1.000
==== e(   2) =   -71.43147 eV ==== 
     psi = 0.245*[#   1]+0.245*[#  81]+0.150*[#  11]+0.150*[#  51]+0.074*[#  31]
          +0.074*[#  71]+0.026*[#  41]+0.011*[#  61]+0.001*[#  30]
    |psi|^2 = 1.000
==== e(   3) =   -71.43070 eV ==== 
     psi = 0.215*[#  31]+0.215*[#  71]+0.169*[#  11]+0.169*[#  51]+0.102*[#   1]
          +0.102*[#  81]+0.003*[#  41]+0.002*[#  61]
    |psi|^2 = 1.000
==== e(   4) =   -71.42713 eV ==== 
     psi = 0.174*[#  11]+0.174*[#  51]+0.170*[#   1]+0.170*[#  81]+0.130*[#  31]
          +0.130*[#  71]+0.021*[#  41]+0.006*[#  61]
    |psi|^2 = 1.000
==== e(   5) =   -71.42652 eV ==== 
     psi = 0.215*[#  31]+0.215*[#  71]+0.149*[#  11]+0.149*[#  51]+0.122*[#   1]
          +0.122*[#  81]+0.003*[#  41]+0.001*[#  40]+0.001*[#  61]+0.001*[#  80]
          
    |psi|^2 = 1.000
==== e(   6) =   -71.42338 eV ==== 
     psi = 0.164*[#   1]+0.164*[#  81]+0.163*[#  11]+0.163*[#  51]+0.159*[#  31]
          +0.159*[#  71]+0.002*[#  10]+0.002*[#  20]+0.002*[#  40]+0.002*[#  60]
          +0.002*[#  80]+0.002*[#  90]
    |psi|^2 = 1.000
==== e(   7) =   -71.42065 eV ==== 
     psi = 0.819*[#  41]+0.034*[#   1]+0.034*[#  81]+0.021*[#  11]+0.021*[#  51]
          +0.017*[#  31]+0.017*[#  71]+0.011*[#  61]+0.004*[#  50]+0.002*[#  98]
          +0.002*[# 134]+0.001*[# 109]+0.001*[# 113]+0.001*[# 145]+0.001*[# 149]
          
    |psi|^2 = 1.000
==== e(   8) =   -71.41186 eV ==== 
     psi = 0.915*[#  61]+0.010*[#  11]+0.010*[#  51]+0.009*[#  31]+0.009*[#  71]
          +0.008*[#   1]+0.008*[#  81]+0.005*[#  41]+0.003*[#  70]+0.002*[# 106]
          +0.002*[# 142]+0.001*[# 117]+0.001*[# 121]+0.001*[# 153]+0.001*[# 157]
          
    |psi|^2 = 1.000
==== e(   9) =   -58.31333 eV ==== 
     psi = 0.968*[#  21]+0.003*[#  30]+0.002*[# 126]+0.002*[# 162]+0.002*[#  93]
          +0.002*[# 101]+0.002*[# 129]+0.002*[# 137]+0.001*[#  92]+0.001*[# 100]
          +0.001*[# 124]+0.001*[# 128]+0.001*[# 136]+0.001*[# 160]
    |psi|^2 = 1.000
==== e(  10) =   -35.81344 eV ==== 
     psi = 0.148*[#   4]+0.145*[#  44]+0.119*[#  84]+0.071*[#  14]+0.064*[#  43]
          +0.063*[#  53]+0.061*[#  83]+0.052*[#  64]+0.050*[#  33]+0.041*[#  73]
          +0.033*[#  63]+0.033*[#   3]+0.029*[#  54]+0.028*[#  74]+0.021*[#  13]
          +0.018*[#  34]+0.001*[#  96]+0.001*[# 112]+0.001*[# 116]+0.001*[# 132]
          +0.001*[# 148]+0.001*[# 152]
    |psi|^2 = 1.000
==== e(  11) =   -35.79820 eV ==== 
     psi = 0.145*[#  14]+0.104*[#  53]+0.094*[#  64]+0.092*[#  43]+0.079*[#  54]
          +0.077*[#  44]+0.066*[#  84]+0.064*[#  74]+0.059*[#  33]+0.043*[#   3]
          +0.037*[#  13]+0.035*[#   4]+0.033*[#  63]+0.021*[#  34]+0.016*[#  73]
          +0.012*[#  83]+0.001*[# 104]+0.001*[# 120]+0.001*[# 140]+0.001*[# 156]
          +0.001*[# 108]+0.001*[# 144]
    |psi|^2 = 1.000
==== e(  12) =   -35.78401 eV ==== 
     psi = 0.114*[#  33]+0.094*[#  63]+0.089*[#  73]+0.086*[#  13]+0.085*[#  43]
          +0.081*[#  54]+0.073*[#  83]+0.065*[#  64]+0.061*[#   3]+0.048*[#  74]
          +0.039*[#   4]+0.033*[#  53]+0.029*[#  44]+0.027*[#  84]+0.027*[#  14]
          +0.024*[#  34]
    |psi|^2 = 1.000
==== e(  13) =   -35.76152 eV ==== 
     psi = 0.132*[#  63]+0.112*[#  34]+0.099*[#   3]+0.087*[#  13]+0.080*[#  43]
          +0.069*[#  74]+0.066*[#  83]+0.060*[#  73]+0.056*[#  64]+0.056*[#  54]
          +0.048*[#  84]+0.039*[#  44]+0.036*[#  53]+0.017*[#  33]+0.016*[#   4]
          +0.005*[#  14]+0.001*[# 108]+0.001*[# 144]
    |psi|^2 = 1.000
==== e(  14) =   -35.75341 eV ==== 
     psi = 0.185*[#  74]+0.142*[#  34]+0.120*[#  53]+0.087*[#  33]+0.077*[#  83]
          +0.069*[#  14]+0.065*[#  13]+0.059*[#   3]+0.047*[#   4]+0.044*[#  73]
          +0.029*[#  84]+0.015*[#  54]+0.014*[#  63]+0.011*[#  64]+0.010*[#  44]
          +0.005*[#  43]+0.001*[#  30]
    |psi|^2 = 1.000
==== e(  15) =   -35.72091 eV ==== 
     psi = 0.185*[#  73]+0.108*[#  34]+0.108*[#  13]+0.093*[#  33]+0.090*[#  83]
          +0.085*[#   3]+0.080*[#  54]+0.055*[#   4]+0.050*[#  84]+0.037*[#  53]
          +0.020*[#  43]+0.018*[#  63]+0.016*[#  74]+0.014*[#  64]+0.011*[#  44]
          +0.010*[#  14]+0.001*[#  70]
    |psi|^2 = 1.000
==== e(  16) =   -35.68317 eV ==== 
     psi = 0.108*[#   4]+0.089*[#  44]+0.086*[#  63]+0.085*[#  43]+0.082*[#  83]
          +0.081*[#  14]+0.078*[#  33]+0.065*[#  73]+0.059*[#  64]+0.057*[#  53]
          +0.056*[#  84]+0.037*[#  54]+0.035*[#  74]+0.030*[#   3]+0.021*[#  34]
          +0.014*[#  13]
    |psi|^2 = 1.000
==== e(  17) =   -35.67200 eV ==== 
     psi = 0.121*[#  14]+0.097*[#  64]+0.097*[#  44]+0.086*[#  53]+0.083*[#   4]
          +0.082*[#  43]+0.067*[#  84]+0.064*[#  83]+0.059*[#  63]+0.053*[#  54]
          +0.050*[#  33]+0.049*[#   3]+0.027*[#  74]+0.027*[#  73]+0.017*[#  13]
          +0.004*[#  34]
    |psi|^2 = 1.000
==== e(  18) =   -35.65737 eV ==== 
     psi = 0.159*[#  42]+0.135*[#  32]+0.135*[#  72]+0.132*[#  12]+0.132*[#  52]
          +0.105*[#   2]+0.105*[#  82]+0.078*[#  62]
    |psi|^2 = 1.000
==== e(  19) =   -35.64331 eV ==== 
     psi = 0.184*[#  74]+0.180*[#  34]+0.082*[#   3]+0.070*[#  13]+0.064*[#  33]
          +0.060*[#  73]+0.049*[#  84]+0.048*[#  64]+0.048*[#  83]+0.044*[#  54]
          +0.042*[#  63]+0.041*[#  53]+0.025*[#  44]+0.015*[#  43]+0.015*[#   4]
          +0.015*[#  14]+0.001*[#  12]+0.001*[#  32]+0.001*[#  52]+0.001*[#  72]
          
    |psi|^2 = 1.000
==== e(  20) =   -35.64035 eV ==== 
     psi = 0.182*[#  13]+0.171*[#  54]+0.156*[#   3]+0.142*[#  84]+0.042*[#  83]
          +0.040*[#  64]+0.040*[#  53]+0.039*[#  63]+0.032*[#  34]+0.029*[#  14]
          +0.027*[#   4]+0.024*[#  73]+0.021*[#  74]+0.018*[#  43]+0.013*[#  33]
          +0.010*[#  44]
    |psi|^2 = 1.000
==== e(  21) =   -35.63710 eV ==== 
     psi = 0.222*[#   2]+0.222*[#  82]+0.149*[#  12]+0.149*[#  52]+0.105*[#  42]
          +0.061*[#  62]+0.037*[#  32]+0.037*[#  72]
    |psi|^2 = 1.000
==== e(  22) =   -35.63167 eV ==== 
     psi = 0.230*[#  32]+0.230*[#  72]+0.136*[#   2]+0.136*[#  82]+0.116*[#  12]
          +0.116*[#  52]+0.011*[#  62]+0.007*[#  42]
    |psi|^2 = 1.000

 k =   0.1111111111  0.4490502094  0.0000000000
==== e(   1) =   -71.43552 eV ==== 
     psi = 0.174*[#  31]+0.174*[#  71]+0.136*[#  11]+0.136*[#  51]+0.114*[#   1]
          +0.114*[#  81]+0.102*[#  41]+0.023*[#  61]+0.002*[#  30]+0.001*[# 108]
          +0.001*[# 144]+0.001*[#  50]+0.001*[#  70]+0.001*[#  96]+0.001*[# 112]
          +0.001*[# 132]+0.001*[# 148]
    |psi|^2 = 1.000
==== e(   2) =   -71.43267 eV ==== 
     psi = 0.228*[#   1]+0.228*[#  81]+0.154*[#  11]+0.154*[#  51]+0.082*[#  31]
          +0.082*[#  71]+0.028*[#  41]+0.020*[#  61]+0.003*[#  30]+0.001*[# 116]
          +0.001*[# 152]
    |psi|^2 = 1.000
==== e(   3) =   -71.43102 eV ==== 
     psi = 0.186*[#  31]+0.186*[#  71]+0.166*[#  11]+0.166*[#  51]+0.133*[#   1]
          +0.133*[#  81]+0.004*[#  41]+0.003*[#  61]
    |psi|^2 = 1.000
==== e(   4) =   -71.42696 eV ==== 
     psi = 0.163*[#  11]+0.163*[#  51]+0.160*[#  31]+0.160*[#  71]+0.143*[#   1]
          +0.143*[#  81]+0.031*[#  41]+0.009*[#  61]
    |psi|^2 = 1.000
==== e(   5) =   -71.42561 eV ==== 
     psi = 0.189*[#  31]+0.189*[#  71]+0.154*[#  11]+0.154*[#  51]+0.142*[#   1]
          +0.142*[#  81]+0.003*[#  41]+0.001*[#  40]+0.001*[#  80]
    |psi|^2 = 1.000
==== e(   6) =   -71.42399 eV ==== 
     psi = 0.167*[#   1]+0.167*[#  81]+0.164*[#  11]+0.164*[#  51]+0.154*[#  31]
          +0.154*[#  71]+0.002*[#  10]+0.002*[#  20]+0.002*[#  60]+0.002*[#  90]
          +0.002*[#  40]+0.002*[#  41]+0.002*[#  80]
    |psi|^2 = 1.000
==== e(   7) =   -71.42046 eV ==== 
     psi = 0.803*[#  41]+0.038*[#   1]+0.038*[#  81]+0.025*[#  11]+0.025*[#  51]
          +0.021*[#  31]+0.021*[#  71]+0.004*[#  50]+0.004*[#  61]+0.002*[#  98]
          +0.002*[# 134]+0.001*[# 109]+0.001*[# 113]+0.001*[# 145]+0.001*[# 149]
          
    |psi|^2 = 1.000
==== e(   8) =   -71.41185 eV ==== 
     psi = 0.916*[#  61]+0.011*[#  11]+0.011*[#  51]+0.009*[#  31]+0.009*[#  71]
          +0.008*[#   1]+0.008*[#  81]+0.003*[#  70]+0.002*[#  41]+0.002*[# 106]
          +0.002*[# 142]+0.001*[# 117]+0.001*[# 121]+0.001*[# 153]+0.001*[# 157]
          
    |psi|^2 = 1.000
==== e(   9) =   -58.31333 eV ==== 
     psi = 0.968*[#  21]+0.003*[#  30]+0.002*[# 126]+0.002*[# 162]+0.002*[#  93]
          +0.002*[# 101]+0.002*[# 129]+0.002*[# 137]+0.001*[#  92]+0.001*[# 100]
          +0.001*[# 124]+0.001*[# 128]+0.001*[# 136]+0.001*[# 160]
    |psi|^2 = 1.000
==== e(  10) =   -35.82354 eV ==== 
     psi = 0.131*[#   4]+0.129*[#  44]+0.097*[#  84]+0.085*[#  14]+0.070*[#  53]
          +0.069*[#  43]+0.060*[#  64]+0.059*[#  33]+0.059*[#  83]+0.045*[#  73]
          +0.038*[#  74]+0.037*[#  63]+0.033*[#  54]+0.024*[#   3]+0.023*[#  34]
          +0.018*[#  13]+0.001*[# 116]+0.001*[# 152]+0.001*[#  96]+0.001*[# 112]
          +0.001*[# 132]+0.001*[# 148]
    |psi|^2 = 1.000
==== e(  11) =   -35.80305 eV ==== 
     psi = 0.124*[#  14]+0.102*[#  43]+0.102*[#  53]+0.093*[#  44]+0.081*[#  84]
          +0.072*[#  64]+0.069*[#  33]+0.064*[#  74]+0.059*[#  54]+0.051*[#   4]
          +0.048*[#   3]+0.037*[#  13]+0.031*[#  63]+0.018*[#  83]+0.015*[#  73]
          +0.009*[#  34]+0.001*[# 108]+0.001*[# 144]+0.001*[#  96]+0.001*[# 104]
          +0.001*[# 112]+0.001*[# 120]+0.001*[# 132]+0.001*[# 140]+0.001*[# 148]
          +0.001*[# 156]
    |psi|^2 = 1.000
==== e(  12) =   -35.79269 eV ==== 
     psi = 0.107*[#  63]+0.092*[#  73]+0.085*[#  33]+0.084*[#  83]+0.083*[#  64]
          +0.082*[#  54]+0.079*[#  13]+0.065*[#  43]+0.059*[#   3]+0.050*[#   4]
          +0.038*[#  14]+0.036*[#  34]+0.035*[#  53]+0.029*[#  74]+0.027*[#  44]
          +0.025*[#  84]
    |psi|^2 = 1.000
==== e(  13) =   -35.76370 eV ==== 
     psi = 0.125*[#  34]+0.111*[#  63]+0.094*[#   3]+0.093*[#  74]+0.090*[#  13]
          +0.074*[#  43]+0.071*[#  54]+0.058*[#  64]+0.058*[#  73]+0.054*[#  84]
          +0.048*[#  83]+0.042*[#  44]+0.025*[#  33]+0.022*[#  53]+0.008*[#   4]
          +0.003*[#  14]+0.001*[# 108]+0.001*[# 144]
    |psi|^2 = 1.000
==== e(  14) =   -35.75257 eV ==== 
     psi = 0.160*[#  74]+0.132*[#  34]+0.111*[#  53]+0.087*[#  13]+0.083*[#  33]
          +0.080*[#  83]+0.070*[#   3]+0.056*[#  14]+0.055*[#  73]+0.044*[#   4]
          +0.033*[#  84]+0.032*[#  54]+0.017*[#  63]+0.012*[#  64]+0.004*[#  44]
          +0.003*[#  43]
    |psi|^2 = 1.000
==== e(  15) =   -35.71388 eV ==== 
     psi = 0.154*[#  73]+0.103*[#  13]+0.103*[#  83]+0.098*[#   3]+0.093*[#  34]
          +0.091*[#  33]+0.080*[#  54]+0.061*[#   4]+0.056*[#  84]+0.052*[#  53]
          +0.030*[#  74]+0.029*[#  14]+0.011*[#  43]+0.009*[#  63]+0.004*[#  44]
          +0.004*[#  64]+0.001*[#  70]
    |psi|^2 = 1.000
==== e(  16) =   -35.66755 eV ==== 
     psi = 0.099*[#  43]+0.092*[#  33]+0.079*[#  73]+0.079*[#  14]+0.076*[#  63]
          +0.075*[#  44]+0.075*[#   4]+0.063*[#  53]+0.058*[#  84]+0.058*[#  83]
          +0.047*[#  64]+0.044*[#  74]+0.041*[#  54]+0.041*[#   3]+0.031*[#  34]
          +0.026*[#  13]
    |psi|^2 = 1.000
==== e(  17) =   -35.65405 eV ==== 
     psi = 0.173*[#  42]+0.154*[#  32]+0.154*[#  72]+0.117*[#  12]+0.117*[#  52]
          +0.096*[#   2]+0.096*[#  82]+0.076*[#  62]
    |psi|^2 = 1.000
==== e(  18) =   -35.64624 eV ==== 
     psi = 0.108*[#  44]+0.091*[#  53]+0.084*[#  43]+0.083*[#  84]+0.081*[#  64]
          +0.072*[#  14]+0.065*[#   4]+0.064*[#   3]+0.064*[#  63]+0.059*[#  33]
          +0.056*[#  74]+0.054*[#  13]+0.046*[#  83]+0.035*[#  54]+0.011*[#  73]
          +0.008*[#  34]+0.001*[#   2]+0.001*[#  82]
    |psi|^2 = 1.000
==== e(  19) =   -35.64204 eV ==== 
     psi = 0.200*[#   2]+0.200*[#  82]+0.169*[#  12]+0.169*[#  52]+0.089*[#  62]
          +0.069*[#  42]+0.042*[#  32]+0.042*[#  72]
    |psi|^2 = 1.000
==== e(  20) =   -35.63622 eV ==== 
     psi = 0.124*[#  34]+0.123*[#  74]+0.090*[#   3]+0.070*[#  63]+0.068*[#  83]
          +0.065*[#  84]+0.062*[#  13]+0.058*[#  64]+0.054*[#  54]+0.046*[#  53]
          +0.043*[#  73]+0.043*[#  33]+0.042*[#   4]+0.037*[#  14]+0.029*[#  44]
          +0.026*[#  43]+0.002*[#  62]+0.001*[#   2]+0.001*[#  82]
    |psi|^2 = 1.000
==== e(  21) =   -35.63323 eV ==== 
     psi = 0.174*[#  32]+0.174*[#  72]+0.160*[#  12]+0.160*[#  52]+0.146*[#   2]
          +0.146*[#  82]+0.004*[#  62]+0.004*[#  42]+0.003*[#  54]+0.003*[#  13]
          +0.002*[#  34]+0.001*[#  44]+0.001*[#  73]+0.001*[#  83]
    |psi|^2 = 1.000
==== e(  22) =   -35.62688 eV ==== 
     psi = 0.139*[#  54]+0.115*[#  13]+0.100*[#   3]+0.092*[#  84]+0.085*[#  34]
          +0.075*[#  73]+0.065*[#  83]+0.056*[#   4]+0.056*[#  74]+0.051*[#  14]
          +0.046*[#  33]+0.035*[#  64]+0.027*[#  53]+0.026*[#  63]+0.003*[#  44]
          +0.002*[#  32]+0.002*[#  72]+0.002*[#   2]+0.002*[#  82]+0.002*[#  12]
          +0.002*[#  52]+0.001*[#  42]+0.001*[#  43]
    |psi|^2 = 1.000

 k =   0.1111111111  0.5773502692  0.0000000000
==== e(   1) =   -71.43489 eV ==== 
     psi = 0.194*[#  31]+0.194*[#  71]+0.133*[#  11]+0.133*[#  51]+0.122*[#  41]
          +0.092*[#   1]+0.092*[#  81]+0.015*[#  61]+0.002*[# 108]+0.002*[# 144]
          +0.001*[#  50]+0.001*[#  96]+0.001*[# 112]+0.001*[# 132]+0.001*[# 148]
          
    |psi|^2 = 1.000
==== e(   2) =   -71.43342 eV ==== 
     psi = 0.232*[#   1]+0.232*[#  81]+0.157*[#  11]+0.157*[#  51]+0.078*[#  31]
          +0.078*[#  71]+0.028*[#  61]+0.011*[#  41]+0.004*[#  30]+0.001*[# 116]
          +0.001*[# 152]+0.001*[#  70]
    |psi|^2 = 1.000
==== e(   3) =   -71.43113 eV ==== 
     psi = 0.170*[#  31]+0.170*[#  71]+0.166*[#  11]+0.166*[#  51]+0.149*[#   1]
          +0.149*[#  81]+0.004*[#  41]+0.003*[#  61]+0.001*[#  30]
    |psi|^2 = 1.000
==== e(   4) =   -71.42691 eV ==== 
     psi = 0.174*[#  31]+0.174*[#  71]+0.159*[#  11]+0.159*[#  51]+0.132*[#   1]
          +0.132*[#  81]+0.034*[#  41]+0.010*[#  61]+0.001*[#  30]
    |psi|^2 = 1.000
==== e(   5) =   -71.42479 eV ==== 
     psi = 0.210*[#  31]+0.210*[#  71]+0.198*[#   1]+0.198*[#  81]+0.077*[#  11]
          +0.077*[#  51]+0.002*[#  10]+0.002*[#  40]+0.002*[#  80]+0.002*[#  90]
          +0.001*[#  41]
    |psi|^2 = 1.000
==== e(   6) =   -71.42470 eV ==== 
     psi = 0.245*[#  11]+0.245*[#  51]+0.126*[#   1]+0.126*[#  81]+0.115*[#  31]
          +0.115*[#  71]+0.003*[#  41]+0.002*[#  20]+0.002*[#  60]+0.001*[#  10]
          +0.001*[#  90]
    |psi|^2 = 1.000
==== e(   7) =   -71.42039 eV ==== 
     psi = 0.797*[#  41]+0.037*[#   1]+0.037*[#  81]+0.026*[#  11]+0.026*[#  51]
          +0.024*[#  31]+0.024*[#  71]+0.004*[#  50]+0.002*[#  98]+0.002*[# 134]
          +0.001*[#  61]+0.001*[# 109]+0.001*[# 113]+0.001*[# 145]+0.001*[# 149]
          
    |psi|^2 = 1.000
==== e(   8) =   -71.41184 eV ==== 
     psi = 0.916*[#  61]+0.011*[#  11]+0.011*[#  51]+0.009*[#  31]+0.009*[#  71]
          +0.009*[#   1]+0.009*[#  81]+0.003*[#  70]+0.002*[# 106]+0.002*[# 142]
          +0.001*[# 117]+0.001*[# 121]+0.001*[# 153]+0.001*[# 157]
    |psi|^2 = 1.000
==== e(   9) =   -58.31333 eV ==== 
     psi = 0.968*[#  21]+0.003*[#  30]+0.002*[# 126]+0.002*[# 162]+0.002*[#  93]
          +0.002*[# 101]+0.002*[# 129]+0.002*[# 137]+0.001*[#  92]+0.001*[# 100]
          +0.001*[# 124]+0.001*[# 128]+0.001*[# 136]+0.001*[# 160]
    |psi|^2 = 1.000
==== e(  10) =   -35.82709 eV ==== 
     psi = 0.122*[#  44]+0.120*[#   4]+0.093*[#  14]+0.082*[#  84]+0.078*[#  53]
          +0.074*[#  43]+0.065*[#  33]+0.061*[#  64]+0.057*[#  83]+0.046*[#  73]
          +0.045*[#  74]+0.039*[#  63]+0.031*[#  54]+0.026*[#  34]+0.019*[#   3]
          +0.016*[#  13]+0.001*[# 116]+0.001*[# 152]+0.001*[#  96]+0.001*[# 104]
          +0.001*[# 112]+0.001*[# 120]+0.001*[# 132]+0.001*[# 140]+0.001*[# 148]
          +0.001*[# 156]
    |psi|^2 = 1.000
==== e(  11) =   -35.80437 eV ==== 
     psi = 0.124*[#  43]+0.101*[#  33]+0.099*[#  53]+0.091*[#  44]+0.088*[#  14]
          +0.072*[#  74]+0.072*[#  84]+0.053*[#   4]+0.050*[#   3]+0.043*[#  63]
          +0.042*[#  64]+0.040*[#  13]+0.034*[#  73]+0.031*[#  83]+0.029*[#  54]
          +0.005*[#  34]+0.001*[# 108]+0.001*[# 144]+0.001*[#  96]+0.001*[# 112]
          +0.001*[# 132]+0.001*[# 148]
    |psi|^2 = 1.000
==== e(  12) =   -35.79612 eV ==== 
     psi = 0.109*[#  64]+0.100*[#  63]+0.099*[#  54]+0.079*[#  83]+0.076*[#  73]
          +0.068*[#  13]+0.067*[#  14]+0.063*[#   4]+0.061*[#   3]+0.045*[#  34]
          +0.044*[#  84]+0.041*[#  43]+0.040*[#  33]+0.037*[#  44]+0.036*[#  53]
          +0.010*[#  74]
    |psi|^2 = 1.000
==== e(  13) =   -35.76458 eV ==== 
     psi = 0.128*[#  34]+0.101*[#  74]+0.101*[#  63]+0.091*[#   3]+0.091*[#  13]
          +0.079*[#  54]+0.070*[#  43]+0.064*[#  64]+0.056*[#  84]+0.055*[#  73]
          +0.046*[#  44]+0.041*[#  83]+0.028*[#  33]+0.016*[#  53]+0.007*[#   4]
          +0.005*[#  14]+0.001*[# 108]+0.001*[# 144]
    |psi|^2 = 1.000
==== e(  14) =   -35.75245 eV ==== 
     psi = 0.144*[#  74]+0.124*[#  34]+0.100*[#  13]+0.100*[#  53]+0.087*[#  33]
          +0.079*[#   3]+0.073*[#  83]+0.067*[#  73]+0.045*[#  54]+0.044*[#  14]
          +0.043*[#  84]+0.038*[#   4]+0.018*[#  63]+0.011*[#  64]+0.003*[#  44]
          +0.002*[#  43]
    |psi|^2 = 1.000
==== e(  15) =   -35.71131 eV ==== 
     psi = 0.125*[#  73]+0.113*[#  83]+0.105*[#   3]+0.093*[#  13]+0.086*[#  34]
          +0.081*[#  54]+0.078*[#  33]+0.073*[#   4]+0.065*[#  84]+0.061*[#  53]
          +0.048*[#  14]+0.039*[#  74]+0.005*[#  43]+0.003*[#  44]+0.002*[#  63]
          +0.002*[#  64]+0.001*[#  70]+0.001*[#  30]
    |psi|^2 = 1.000
==== e(  16) =   -35.66080 eV ==== 
     psi = 0.109*[#  43]+0.109*[#  33]+0.096*[#  73]+0.067*[#  44]+0.066*[#  14]
          +0.064*[#  63]+0.061*[#  53]+0.057*[#  74]+0.057*[#   4]+0.055*[#  84]
          +0.045*[#  34]+0.042*[#  83]+0.041*[#   3]+0.041*[#  54]+0.038*[#  64]
          +0.036*[#  13]
    |psi|^2 = 1.000
==== e(  17) =   -35.65178 eV ==== 
     psi = 0.205*[#  42]+0.179*[#  32]+0.179*[#  72]+0.103*[#  12]+0.103*[#  52]
          +0.079*[#   2]+0.079*[#  82]+0.053*[#  62]
    |psi|^2 = 1.000
==== e(  18) =   -35.64489 eV ==== 
     psi = 0.214*[#   2]+0.214*[#  82]+0.164*[#  12]+0.164*[#  52]+0.081*[#  62]
          +0.055*[#  42]+0.045*[#  32]+0.045*[#  72]
    |psi|^2 = 1.000
==== e(  19) =   -35.63485 eV ==== 
     psi = 0.118*[#  84]+0.104*[#   3]+0.099*[#  13]+0.097*[#  74]+0.083*[#  64]
          +0.069*[#  44]+0.063*[#  53]+0.058*[#  33]+0.056*[#  63]+0.053*[#  54]
          +0.046*[#  34]+0.041*[#  43]+0.023*[#   4]+0.017*[#  14]+0.010*[#   2]
          +0.010*[#  82]+0.009*[#  83]+0.008*[#  32]+0.008*[#  72]+0.007*[#  73]
          +0.006*[#  12]+0.006*[#  52]
    |psi|^2 = 1.000
==== e(  20) =   -35.63407 eV ==== 
     psi = 0.168*[#  32]+0.168*[#  72]+0.165*[#  12]+0.165*[#  52]+0.125*[#   2]
          +0.125*[#  82]+0.011*[#  42]+0.007*[#  62]+0.007*[#  13]+0.006*[#  84]
          +0.004*[#   3]+0.004*[#  54]+0.004*[#  53]+0.004*[#  64]+0.004*[#  74]
          +0.004*[#  63]+0.003*[#  44]+0.003*[#  33]+0.002*[#  43]+0.002*[#   4]
          +0.001*[#  14]+0.001*[#  34]
    |psi|^2 = 1.000
==== e(  21) =   -35.63268 eV ==== 
     psi = 0.118*[#  63]+0.088*[#  53]+0.087*[#  14]+0.080*[#  64]+0.077*[#  34]
          +0.070*[#   4]+0.065*[#  83]+0.063*[#  84]+0.061*[#  74]+0.058*[#   3]
          +0.046*[#  13]+0.045*[#  54]+0.038*[#  43]+0.035*[#  73]+0.032*[#  44]
          +0.018*[#  33]+0.002*[#  12]+0.002*[#  42]+0.002*[#  52]+0.001*[#  32]
          
    |psi|^2 = 1.000
==== e(  22) =   -35.62004 eV ==== 
     psi = 0.186*[#  32]+0.186*[#  72]+0.109*[#  42]+0.109*[#  12]+0.109*[#  52]
          +0.086*[#   2]+0.086*[#  82]+0.070*[#  62]+0.006*[#  83]+0.005*[#  53]
          +0.004*[#  14]+0.004*[#   3]+0.004*[#  33]+0.004*[#  74]+0.003*[#   4]
          +0.003*[#  43]+0.002*[#  44]+0.002*[#  84]+0.002*[#  34]+0.002*[#  73]
          +0.001*[#  13]+0.001*[#  54]
    |psi|^2 = 1.000

 k =   0.2222222222  0.3849001795  0.0000000000
==== e(   1) =   -71.43563 eV ==== 
     psi = 0.172*[#  31]+0.172*[#  71]+0.137*[#  11]+0.137*[#  51]+0.116*[#   1]
          +0.116*[#  81]+0.100*[#  41]+0.023*[#  61]+0.003*[#  30]+0.001*[# 108]
          +0.001*[# 144]+0.001*[#  50]+0.001*[#  70]+0.001*[#  96]+0.001*[# 112]
          +0.001*[# 132]+0.001*[# 148]
    |psi|^2 = 1.000
==== e(   2) =   -71.43218 eV ==== 
     psi = 0.301*[#   1]+0.301*[#  81]+0.153*[#  11]+0.153*[#  51]+0.036*[#  41]
          +0.020*[#  61]+0.006*[#  31]+0.006*[#  71]+0.001*[# 116]+0.001*[# 152]
          +0.001*[#  96]+0.001*[# 112]+0.001*[# 132]+0.001*[# 148]
    |psi|^2 = 1.000
==== e(   3) =   -71.43148 eV ==== 
     psi = 0.266*[#  31]+0.266*[#  71]+0.165*[#  11]+0.165*[#  51]+0.053*[#   1]
          +0.053*[#  81]+0.003*[#  61]+0.003*[#  30]+0.001*[#  41]
    |psi|^2 = 1.000
==== e(   4) =   -71.42640 eV ==== 
     psi = 0.254*[#   1]+0.254*[#  81]+0.205*[#  11]+0.205*[#  51]+0.026*[#  41]
          +0.012*[#  31]+0.012*[#  71]+0.005*[#  61]+0.001*[#  10]+0.001*[#  90]
          +0.001*[#  20]+0.001*[#  60]+0.001*[#  97]+0.001*[# 133]
    |psi|^2 = 1.000
==== e(   5) =   -71.42617 eV ==== 
     psi = 0.336*[#  31]+0.336*[#  71]+0.116*[#  11]+0.116*[#  51]+0.032*[#   1]
          +0.032*[#  81]+0.003*[#  41]+0.002*[#  61]+0.002*[#  40]+0.002*[#  80]
          +0.001*[# 110]+0.001*[# 146]
    |psi|^2 = 1.000
==== e(   6) =   -71.42390 eV ==== 
     psi = 0.171*[#   1]+0.171*[#  81]+0.162*[#  11]+0.162*[#  51]+0.151*[#  31]
          +0.151*[#  71]+0.003*[#  41]+0.002*[#  10]+0.002*[#  90]+0.002*[#  20]
          +0.002*[#  60]+0.002*[#  40]+0.002*[#  80]
    |psi|^2 = 1.000
==== e(   7) =   -71.42048 eV ==== 
     psi = 0.803*[#  41]+0.038*[#   1]+0.038*[#  81]+0.025*[#  11]+0.025*[#  51]
          +0.020*[#  31]+0.020*[#  71]+0.005*[#  61]+0.004*[#  50]+0.002*[#  98]
          +0.002*[# 134]+0.001*[# 109]+0.001*[# 113]+0.001*[# 145]+0.001*[# 149]
          
    |psi|^2 = 1.000
==== e(   8) =   -71.41185 eV ==== 
     psi = 0.915*[#  61]+0.011*[#  11]+0.011*[#  51]+0.009*[#  31]+0.009*[#  71]
          +0.008*[#   1]+0.008*[#  81]+0.003*[#  70]+0.002*[#  41]+0.002*[# 106]
          +0.002*[# 142]+0.001*[# 117]+0.001*[# 121]+0.001*[# 153]+0.001*[# 157]
          
    |psi|^2 = 1.000
==== e(   9) =   -58.31333 eV ==== 
     psi = 0.968*[#  21]+0.003*[#  30]+0.002*[# 126]+0.002*[# 162]+0.002*[#  93]
          +0.002*[# 101]+0.002*[# 129]+0.002*[# 137]+0.001*[#  92]+0.001*[# 100]
          +0.001*[# 124]+0.001*[# 128]+0.001*[# 136]+0.001*[# 160]
    |psi|^2 = 1.000
==== e(  10) =   -35.82064 eV ==== 
     psi = 0.155*[#   4]+0.140*[#  44]+0.109*[#  84]+0.076*[#  14]+0.070*[#  83]
          +0.061*[#  64]+0.059*[#  53]+0.059*[#  43]+0.050*[#  33]+0.049*[#  73]
          +0.043*[#  63]+0.032*[#  54]+0.024*[#   3]+0.017*[#  74]+0.016*[#  34]
          +0.015*[#  13]+0.002*[# 116]+0.002*[# 152]+0.001*[#  96]+0.001*[# 112]
          +0.001*[# 132]+0.001*[# 148]
    |psi|^2 = 1.000
==== e(  11) =   -35.80742 eV ==== 
     psi = 0.134*[#  14]+0.120*[#  43]+0.118*[#  53]+0.093*[#  74]+0.086*[#  44]
          +0.081*[#  33]+0.067*[#  84]+0.065*[#  64]+0.052*[#  54]+0.043*[#   3]
          +0.036*[#  13]+0.027*[#   4]+0.022*[#  63]+0.020*[#  34]+0.008*[#  73]
          +0.003*[#  83]+0.002*[# 108]+0.002*[# 144]
    |psi|^2 = 1.000
==== e(  12) =   -35.79073 eV ==== 
     psi = 0.112*[#  63]+0.102*[#  54]+0.101*[#  73]+0.094*[#  13]+0.093*[#  64]
          +0.088*[#  83]+0.079*[#  33]+0.068*[#   3]+0.045*[#  43]+0.043*[#   4]
          +0.042*[#  34]+0.029*[#  14]+0.023*[#  84]+0.021*[#  53]+0.020*[#  74]
          +0.015*[#  44]
    |psi|^2 = 1.000
==== e(  13) =   -35.76470 eV ==== 
     psi = 0.129*[#  34]+0.110*[#  63]+0.099*[#  74]+0.096*[#   3]+0.086*[#  43]
          +0.076*[#  13]+0.057*[#  73]+0.055*[#  84]+0.054*[#  64]+0.054*[#  54]
          +0.049*[#  83]+0.048*[#  44]+0.027*[#  33]+0.025*[#  53]+0.008*[#   4]
          +0.002*[#  14]+0.001*[# 108]+0.001*[# 144]
    |psi|^2 = 1.000
==== e(  14) =   -35.74699 eV ==== 
     psi = 0.171*[#  74]+0.144*[#  53]+0.107*[#  34]+0.086*[#  33]+0.086*[#  83]
          +0.083*[#  14]+0.069*[#  13]+0.063*[#   4]+0.061*[#   3]+0.038*[#  84]
          +0.021*[#  73]+0.018*[#  63]+0.011*[#  64]+0.007*[#  44]+0.007*[#  54]
          +0.007*[#  43]+0.001*[#  50]
    |psi|^2 = 1.000
==== e(  15) =   -35.72020 eV ==== 
     psi = 0.188*[#  73]+0.122*[#  13]+0.114*[#  54]+0.108*[#  34]+0.102*[#   3]
          +0.090*[#  33]+0.083*[#  83]+0.060*[#  84]+0.040*[#   4]+0.017*[#  43]
          +0.015*[#  53]+0.012*[#  63]+0.011*[#  74]+0.007*[#  14]+0.006*[#  44]
          +0.006*[#  64]+0.001*[#  70]
    |psi|^2 = 1.000
==== e(  16) =   -35.65844 eV ==== 
     psi = 0.145*[#  33]+0.106*[#  43]+0.096*[#  63]+0.088*[#   4]+0.085*[#  83]
          +0.083*[#  44]+0.079*[#  73]+0.078*[#  53]+0.077*[#  74]+0.062*[#  14]
          +0.039*[#  64]+0.017*[#  13]+0.011*[#  34]+0.009*[#  84]+0.006*[#   3]
          +0.001*[#   2]+0.001*[#  82]
    |psi|^2 = 1.000
==== e(  17) =   -35.65447 eV ==== 
     psi = 0.078*[#  32]+0.078*[#  72]+0.075*[#  42]+0.068*[#  14]+0.066*[#  84]
          +0.057*[#  53]+0.050*[#   4]+0.050*[#  44]+0.050*[#  12]+0.050*[#  52]
          +0.049*[#   2]+0.049*[#  82]+0.048*[#   3]+0.043*[#  43]+0.042*[#  64]
          +0.032*[#  83]+0.030*[#  62]+0.028*[#  54]+0.021*[#  63]+0.016*[#  13]
          +0.002*[#  34]+0.001*[#  73]
    |psi|^2 = 1.000
==== e(  18) =   -35.65424 eV ==== 
     psi = 0.100*[#  42]+0.091*[#  32]+0.091*[#  72]+0.062*[#   2]+0.062*[#  82]
          +0.058*[#  84]+0.056*[#  14]+0.048*[#  44]+0.047*[#  12]+0.047*[#  52]
          +0.045*[#  53]+0.042*[#   4]+0.042*[#   3]+0.041*[#  43]+0.038*[#  64]
          +0.026*[#  83]+0.025*[#  54]+0.024*[#  62]+0.020*[#  63]+0.013*[#  13]
          +0.002*[#  34]+0.002*[#  74]+0.001*[#  73]
    |psi|^2 = 1.000
==== e(  19) =   -35.64026 eV ==== 
     psi = 0.220*[#   2]+0.220*[#  82]+0.156*[#  12]+0.156*[#  52]+0.119*[#  62]
          +0.104*[#  42]+0.002*[#  32]+0.002*[#  72]
    |psi|^2 = 1.000
==== e(  20) =   -35.63677 eV ==== 
     psi = 0.208*[#  34]+0.198*[#  74]+0.083*[#   3]+0.073*[#  73]+0.064*[#  64]
          +0.063*[#  33]+0.056*[#  63]+0.047*[#  84]+0.046*[#  83]+0.041*[#  13]
          +0.026*[#  54]+0.025*[#  44]+0.024*[#  53]+0.010*[#   4]+0.010*[#  43]
          +0.008*[#  14]
    |psi|^2 = 1.000
==== e(  21) =   -35.63543 eV ==== 
     psi = 0.247*[#  32]+0.247*[#  72]+0.136*[#  12]+0.136*[#  52]+0.100*[#   2]
          +0.100*[#  82]+0.005*[#  62]+0.004*[#  42]+0.002*[#  13]+0.002*[#  54]
          
    |psi|^2 = 1.000
==== e(  22) =   -35.63126 eV ==== 
     psi = 0.176*[#  13]+0.171*[#  54]+0.099*[#   3]+0.094*[#  84]+0.056*[#  83]
          +0.055*[#  64]+0.052*[#  53]+0.052*[#   4]+0.049*[#  63]+0.048*[#  14]
          +0.043*[#  73]+0.031*[#  33]+0.019*[#  34]+0.008*[#  74]+0.005*[#  12]
          +0.005*[#  52]+0.004*[#  43]+0.004*[#  44]+0.004*[#  62]+0.003*[#  42]
          +0.003*[#   2]+0.003*[#  82]+0.002*[#  32]+0.002*[#  72]
    |psi|^2 = 1.000

 k =   0.2222222222  0.5132002393  0.0000000000
==== e(   1) =   -71.43481 eV ==== 
     psi = 0.194*[#  31]+0.194*[#  71]+0.134*[#  11]+0.134*[#  51]+0.117*[#  41]
          +0.093*[#   1]+0.093*[#  81]+0.014*[#  61]+0.001*[# 108]+0.001*[# 144]
          +0.001*[#  50]+0.001*[#  96]+0.001*[# 112]+0.001*[# 132]+0.001*[# 148]
          
    |psi|^2 = 1.000
==== e(   2) =   -71.43308 eV ==== 
     psi = 0.264*[#   1]+0.264*[#  81]+0.156*[#  11]+0.156*[#  51]+0.040*[#  31]
          +0.040*[#  71]+0.031*[#  61]+0.022*[#  41]+0.002*[#  30]+0.001*[# 116]
          +0.001*[# 152]+0.001*[#  70]+0.001*[#  96]+0.001*[# 112]+0.001*[# 132]
          +0.001*[# 148]
    |psi|^2 = 1.000
==== e(   3) =   -71.43183 eV ==== 
     psi = 0.211*[#  31]+0.211*[#  71]+0.164*[#  11]+0.164*[#  51]+0.107*[#   1]
          +0.107*[#  81]+0.004*[#  41]+0.004*[#  61]+0.004*[#  30]
    |psi|^2 = 1.000
==== e(   4) =   -71.42618 eV ==== 
     psi = 0.169*[#  11]+0.169*[#  51]+0.164*[#   1]+0.164*[#  81]+0.140*[#  31]
          +0.140*[#  71]+0.024*[#  41]+0.006*[#  61]
    |psi|^2 = 1.000
==== e(   5) =   -71.42539 eV ==== 
     psi = 0.219*[#  31]+0.219*[#  71]+0.145*[#  11]+0.145*[#  51]+0.118*[#   1]
          +0.118*[#  81]+0.007*[#  41]+0.002*[#  61]+0.002*[#  40]+0.002*[#  80]
          
    |psi|^2 = 1.000
==== e(   6) =   -71.42458 eV ==== 
     psi = 0.181*[#   1]+0.181*[#  81]+0.168*[#  11]+0.168*[#  51]+0.134*[#  31]
          +0.134*[#  71]+0.005*[#  41]+0.002*[#  10]+0.002*[#  90]+0.001*[#  20]
          +0.001*[#  60]+0.001*[#  40]+0.001*[#  80]
    |psi|^2 = 1.000
==== e(   7) =   -71.42037 eV ==== 
     psi = 0.793*[#  41]+0.037*[#   1]+0.037*[#  81]+0.028*[#  11]+0.028*[#  51]
          +0.025*[#  31]+0.025*[#  71]+0.004*[#  50]+0.002*[#  98]+0.002*[# 134]
          +0.001*[# 109]+0.001*[# 113]+0.001*[# 145]+0.001*[# 149]
    |psi|^2 = 1.000
==== e(   8) =   -71.41184 eV ==== 
     psi = 0.916*[#  61]+0.011*[#  11]+0.011*[#  51]+0.009*[#  31]+0.009*[#  71]
          +0.009*[#   1]+0.009*[#  81]+0.003*[#  70]+0.002*[# 106]+0.002*[# 142]
          +0.001*[# 117]+0.001*[# 121]+0.001*[# 153]+0.001*[# 157]
    |psi|^2 = 1.000
==== e(   9) =   -58.31333 eV ==== 
     psi = 0.968*[#  21]+0.003*[#  30]+0.002*[# 126]+0.002*[# 162]+0.002*[#  93]
          +0.002*[# 101]+0.002*[# 129]+0.002*[# 137]+0.001*[#  92]+0.001*[# 100]
          +0.001*[# 124]+0.001*[# 128]+0.001*[# 136]+0.001*[# 160]
    |psi|^2 = 1.000
==== e(  10) =   -35.82526 eV ==== 
     psi = 0.135*[#   4]+0.121*[#  44]+0.092*[#  14]+0.081*[#  84]+0.072*[#  53]
          +0.069*[#  83]+0.068*[#  64]+0.067*[#  43]+0.062*[#  33]+0.056*[#  73]
          +0.050*[#  63]+0.031*[#  54]+0.027*[#  74]+0.021*[#  34]+0.014*[#   3]
          +0.010*[#  13]+0.002*[# 116]+0.002*[# 152]+0.001*[# 104]+0.001*[# 120]
          +0.001*[# 140]+0.001*[# 156]+0.001*[#  96]+0.001*[# 112]+0.001*[# 132]
          +0.001*[# 148]
    |psi|^2 = 1.000
==== e(  11) =   -35.81074 eV ==== 
     psi = 0.139*[#  43]+0.118*[#  53]+0.106*[#  44]+0.104*[#  33]+0.103*[#  74]
          +0.100*[#  14]+0.082*[#  84]+0.050*[#   3]+0.041*[#  13]+0.040*[#   4]
          +0.026*[#  64]+0.023*[#  54]+0.014*[#  63]+0.011*[#  73]+0.010*[#  34]
          +0.008*[#  83]+0.002*[# 108]+0.002*[# 144]+0.001*[#  96]+0.001*[# 112]
          +0.001*[# 132]+0.001*[# 148]
    |psi|^2 = 1.000
==== e(  12) =   -35.79627 eV ==== 
     psi = 0.126*[#  63]+0.120*[#  64]+0.112*[#  54]+0.104*[#  73]+0.099*[#  83]
          +0.081*[#  13]+0.066*[#  34]+0.064*[#   3]+0.054*[#   4]+0.046*[#  14]
[...]
    |psi|^2 = 1.000
==== e(   8) =   -71.41184 eV ==== 
     psi = 0.916*[#  61]+0.010*[#   1]+0.010*[#  81]+0.010*[#  31]+0.010*[#  71]
          +0.008*[#  11]+0.008*[#  51]+0.003*[#  70]+0.002*[# 106]+0.002*[# 142]
          +0.001*[# 117]+0.001*[# 121]+0.001*[# 153]+0.001*[# 157]
    |psi|^2 = 1.000
==== e(   9) =   -58.31333 eV ==== 
     psi = 0.968*[#  21]+0.003*[#  30]+0.002*[# 126]+0.002*[# 162]+0.002*[#  93]
          +0.002*[# 101]+0.002*[# 129]+0.002*[# 137]+0.001*[#  92]+0.001*[# 100]
          +0.001*[# 124]+0.001*[# 128]+0.001*[# 136]+0.001*[# 160]
    |psi|^2 = 1.000
==== e(  10) =   -35.82524 eV ==== 
     psi = 0.129*[#  43]+0.128*[#  33]+0.114*[#  53]+0.107*[#  14]+0.079*[#  73]
          +0.074*[#  63]+0.064*[#  74]+0.064*[#  83]+0.061*[#   4]+0.060*[#  44]
          +0.046*[#  64]+0.016*[#  34]+0.013*[#  13]+0.009*[#   3]+0.006*[#  84]
          +0.006*[#  54]+0.001*[# 104]+0.001*[# 108]+0.001*[# 120]+0.001*[# 140]
          +0.001*[# 144]+0.001*[# 156]+0.001*[# 116]+0.001*[# 152]
    |psi|^2 = 1.000
==== e(  11) =   -35.81074 eV ==== 
     psi = 0.149*[#  44]+0.108*[#  84]+0.099*[#   4]+0.096*[#  43]+0.082*[#  33]
          +0.081*[#  53]+0.078*[#  74]+0.054*[#  13]+0.044*[#   3]+0.040*[#  14]
          +0.034*[#  83]+0.029*[#  73]+0.026*[#  34]+0.022*[#  64]+0.019*[#  63]
          +0.014*[#  54]+0.002*[#  96]+0.002*[# 112]+0.002*[# 132]+0.002*[# 148]
          +0.001*[# 108]+0.001*[# 144]
    |psi|^2 = 1.000
==== e(  12) =   -35.79623 eV ==== 
     psi = 0.129*[#  63]+0.127*[#  34]+0.119*[#  64]+0.103*[#  83]+0.102*[#  73]
          +0.072*[#  14]+0.070*[#   4]+0.066*[#  54]+0.044*[#  74]+0.039*[#   3]
          +0.030*[#  53]+0.024*[#  13]+0.019*[#  33]+0.012*[#  43]+0.012*[#  44]
          +0.007*[#  84]+0.001*[# 116]+0.001*[# 152]
    |psi|^2 = 1.000
==== e(  13) =   -35.76654 eV ==== 
     psi = 0.135*[#  13]+0.127*[#   3]+0.116*[#  54]+0.095*[#  64]+0.090*[#  84]
          +0.083*[#  44]+0.060*[#  34]+0.058*[#  63]+0.056*[#  43]+0.046*[#  74]
          +0.039*[#  83]+0.027*[#  73]+0.025*[#  53]+0.013*[#  33]+0.006*[#  14]
          +0.002*[#   4]+0.001*[#  30]+0.001*[#  96]+0.001*[# 112]+0.001*[# 132]
          +0.001*[# 148]
    |psi|^2 = 1.000
==== e(  14) =   -35.74317 eV ==== 
     psi = 0.200*[#  84]+0.152*[#   3]+0.124*[#  13]+0.112*[#  54]+0.086*[#  33]
          +0.067*[#  74]+0.053*[#   4]+0.048*[#  53]+0.038*[#  73]+0.037*[#  14]
          +0.021*[#  64]+0.019*[#  34]+0.010*[#  63]+0.005*[#  83]+0.004*[#  44]
          +0.004*[#  43]+0.001*[#  50]
    |psi|^2 = 1.000
==== e(  15) =   -35.71905 eV ==== 
     psi = 0.138*[#  34]+0.125*[#  83]+0.119*[#  14]+0.113*[#  54]+0.090*[#   4]
          +0.085*[#  74]+0.072*[#  73]+0.065*[#  53]+0.059*[#  13]+0.052*[#   3]
          +0.019*[#  33]+0.018*[#  84]+0.012*[#  44]+0.007*[#  43]+0.004*[#  64]
          +0.003*[#  63]+0.001*[#  70]
    |psi|^2 = 1.000
==== e(  16) =   -35.65112 eV ==== 
     psi = 0.194*[#  42]+0.175*[#   2]+0.175*[#  82]+0.128*[#  12]+0.128*[#  52]
          +0.061*[#  32]+0.061*[#  72]+0.057*[#  62]
    |psi|^2 = 1.000
==== e(  17) =   -35.64513 eV ==== 
     psi = 0.146*[#  44]+0.140*[#   4]+0.114*[#  84]+0.084*[#  14]+0.066*[#  83]
          +0.063*[#  54]+0.063*[#  53]+0.059*[#  64]+0.051*[#  43]+0.042*[#  13]
          +0.041*[#   3]+0.033*[#  33]+0.030*[#  74]+0.021*[#  63]+0.012*[#  73]
          +0.009*[#  34]+0.003*[#  32]+0.003*[#  72]+0.001*[#   2]+0.001*[#  62]
          +0.001*[#  82]
    |psi|^2 = 1.000
==== e(  18) =   -35.64414 eV ==== 
     psi = 0.245*[#  32]+0.245*[#  72]+0.126*[#  62]+0.109*[#  12]+0.109*[#  52]
          +0.066*[#  42]+0.037*[#   2]+0.037*[#  82]+0.001*[#   4]
    |psi|^2 = 1.000
==== e(  19) =   -35.63675 eV ==== 
     psi = 0.196*[#   2]+0.196*[#  82]+0.157*[#  12]+0.157*[#  52]+0.122*[#  32]
          +0.122*[#  72]+0.013*[#  42]+0.012*[#  62]+0.001*[#  43]+0.001*[#  83]
          
    |psi|^2 = 1.000
==== e(  20) =   -35.63373 eV ==== 
     psi = 0.151*[#  74]+0.119*[#  53]+0.118*[#  33]+0.097*[#  43]+0.087*[#  14]
          +0.083*[#  63]+0.064*[#  34]+0.046*[#  64]+0.043*[#   4]+0.037*[#  44]
          +0.035*[#  13]+0.031*[#  73]+0.026*[#  84]+0.026*[#  83]+0.009*[#   3]
          +0.003*[#  54]+0.002*[#   2]+0.002*[#  12]+0.002*[#  52]+0.002*[#  82]
          +0.001*[#  32]+0.001*[#  72]
    |psi|^2 = 1.000
==== e(  21) =   -35.62937 eV ==== 
     psi = 0.175*[#  13]+0.147*[#  54]+0.108*[#  64]+0.098*[#   3]+0.075*[#  84]
          +0.063*[#  73]+0.061*[#  34]+0.051*[#  63]+0.039*[#  33]+0.037*[#  74]
          +0.035*[#  53]+0.029*[#  44]+0.023*[#  83]+0.012*[#  43]+0.007*[#  14]
          +0.004*[#  32]+0.004*[#  72]+0.004*[#  12]+0.004*[#  52]+0.004*[#   2]
          +0.004*[#  82]+0.003*[#  42]+0.002*[#  62]
    |psi|^2 = 1.000
==== e(  22) =   -35.61916 eV ==== 
     psi = 0.087*[#  53]+0.072*[#  73]+0.065*[#  34]+0.059*[#  13]+0.058*[#   3]
          +0.057*[#  14]+0.050*[#  32]+0.050*[#  72]+0.048*[#  42]+0.046*[#  43]
          +0.044*[#   2]+0.044*[#  82]+0.035*[#  83]+0.035*[#  84]+0.035*[#  63]
          +0.034*[#  12]+0.034*[#  52]+0.029*[#  54]+0.027*[#  33]+0.020*[#  74]
          +0.018*[#  44]+0.018*[#  64]+0.012*[#   4]+0.011*[#  62]
    |psi|^2 = 1.000

 k =   0.5555555556  0.0641500299  0.0000000000
==== e(   1) =   -71.43481 eV ==== 
     psi = 0.147*[#  31]+0.147*[#  71]+0.139*[#  11]+0.139*[#  51]+0.136*[#   1]
          +0.136*[#  81]+0.118*[#  41]+0.014*[#  61]+0.001*[#  50]+0.001*[#  96]
          +0.001*[# 108]+0.001*[# 112]+0.001*[# 132]+0.001*[# 144]+0.001*[# 148]
          
    |psi|^2 = 1.000
==== e(   2) =   -71.43307 eV ==== 
     psi = 0.167*[#   1]+0.167*[#  81]+0.150*[#  11]+0.150*[#  51]+0.144*[#  31]
          +0.144*[#  71]+0.031*[#  61]+0.022*[#  41]+0.002*[#  30]+0.001*[#  70]
          
    |psi|^2 = 1.000
==== e(   3) =   -71.43184 eV ==== 
     psi = 0.166*[#  11]+0.166*[#  51]+0.161*[#  31]+0.161*[#  71]+0.156*[#   1]
          +0.156*[#  81]+0.005*[#  41]+0.004*[#  61]+0.004*[#  30]
    |psi|^2 = 1.000
==== e(   4) =   -71.42618 eV ==== 
     psi = 0.180*[#  31]+0.180*[#  71]+0.156*[#  11]+0.156*[#  51]+0.136*[#   1]
          +0.136*[#  81]+0.024*[#  41]+0.006*[#  61]
    |psi|^2 = 1.000
==== e(   5) =   -71.42539 eV ==== 
     psi = 0.193*[#   1]+0.193*[#  81]+0.156*[#  11]+0.156*[#  51]+0.132*[#  31]
          +0.132*[#  71]+0.008*[#  41]+0.002*[#  61]+0.001*[#  10]+0.001*[#  90]
          +0.001*[#  20]+0.001*[#  60]
    |psi|^2 = 1.000
==== e(   6) =   -71.42458 eV ==== 
     psi = 0.171*[#  31]+0.171*[#  71]+0.169*[#  11]+0.169*[#  51]+0.144*[#   1]
          +0.144*[#  81]+0.005*[#  41]+0.001*[#  20]+0.001*[#  40]+0.001*[#  60]
          +0.001*[#  80]+0.001*[#  10]+0.001*[#  90]
    |psi|^2 = 1.000
==== e(   7) =   -71.42037 eV ==== 
     psi = 0.793*[#  41]+0.031*[#   1]+0.031*[#  81]+0.029*[#  11]+0.029*[#  51]
          +0.029*[#  31]+0.029*[#  71]+0.004*[#  50]+0.002*[#  98]+0.002*[# 134]
          +0.001*[# 109]+0.001*[# 113]+0.001*[# 145]+0.001*[# 149]
    |psi|^2 = 1.000
==== e(   8) =   -71.41184 eV ==== 
     psi = 0.916*[#  61]+0.010*[#  11]+0.010*[#  51]+0.009*[#  31]+0.009*[#  71]
          +0.009*[#   1]+0.009*[#  81]+0.003*[#  70]+0.002*[# 106]+0.002*[# 142]
          +0.001*[# 117]+0.001*[# 121]+0.001*[# 153]+0.001*[# 157]
    |psi|^2 = 1.000
==== e(   9) =   -58.31333 eV ==== 
     psi = 0.968*[#  21]+0.003*[#  30]+0.002*[# 126]+0.002*[# 162]+0.002*[#  93]
          +0.002*[# 101]+0.002*[# 129]+0.002*[# 137]+0.001*[#  92]+0.001*[# 100]
          +0.001*[# 124]+0.001*[# 128]+0.001*[# 136]+0.001*[# 160]
    |psi|^2 = 1.000
==== e(  10) =   -35.82519 eV ==== 
     psi = 0.106*[#   4]+0.105*[#  14]+0.101*[#  44]+0.090*[#  53]+0.086*[#  43]
          +0.084*[#  33]+0.064*[#  64]+0.063*[#  73]+0.062*[#  83]+0.056*[#  63]
          +0.052*[#  84]+0.045*[#  74]+0.024*[#  34]+0.022*[#  54]+0.007*[#   3]
          +0.008*[#  13]+0.001*[# 104]+0.001*[# 116]+0.001*[# 120]+0.001*[# 140]
          +0.001*[# 152]+0.001*[# 156]
    |psi|^2 = 1.000
==== e(  11) =   -35.81067 eV ==== 
     psi = 0.134*[#  43]+0.113*[#  44]+0.112*[#  33]+0.102*[#  53]+0.091*[#  74]
          +0.084*[#  84]+0.059*[#  14]+0.058*[#   4]+0.054*[#   3]+0.052*[#  13]
          +0.031*[#  73]+0.028*[#  83]+0.027*[#  63]+0.011*[#  64]+0.010*[#  34]
          +0.009*[#  54]+0.002*[# 108]+0.002*[# 144]+0.001*[#  96]+0.001*[# 112]
          +0.001*[# 132]+0.001*[# 148]
    |psi|^2 = 1.000
==== e(  12) =   -35.79618 eV ==== 
     psi = 0.132*[#  64]+0.118*[#  63]+0.104*[#  54]+0.094*[#  83]+0.089*[#  73]
          +0.087*[#  34]+0.073*[#  14]+0.065*[#   4]+0.057*[#   3]+0.057*[#  13]
          +0.029*[#  84]+0.026*[#  53]+0.016*[#  44]+0.012*[#  33]+0.010*[#  74]
          +0.007*[#  43]+0.001*[# 104]
    |psi|^2 = 1.000
==== e(  13) =   -35.76649 eV ==== 
     psi = 0.105*[#  13]+0.105*[#   3]+0.100*[#  34]+0.088*[#  54]+0.084*[#  74]
          +0.081*[#  63]+0.077*[#  64]+0.072*[#  84]+0.070*[#  43]+0.066*[#  44]
          +0.041*[#  73]+0.036*[#  83]+0.025*[#  33]+0.020*[#  53]+0.004*[#   4]
          +0.004*[#  14]+0.001*[#  30]+0.001*[# 108]+0.001*[# 144]
    |psi|^2 = 1.000
==== e(  14) =   -35.74310 eV ==== 
     psi = 0.128*[#  74]+0.104*[#  13]+0.102*[#  33]+0.102*[#  53]+0.100*[#  84]
          +0.091*[#   3]+0.073*[#  34]+0.052*[#  54]+0.050*[#  14]+0.048*[#   4]
          +0.046*[#  73]+0.039*[#  83]+0.018*[#  63]+0.015*[#  64]+0.005*[#  43]
          +0.004*[#  44]+0.001*[#  50]
    |psi|^2 = 1.000
==== e(  15) =   -35.71904 eV ==== 
     psi = 0.120*[#  83]+0.118*[#  54]+0.108*[#  73]+0.107*[#  34]+0.097*[#   3]
          +0.085*[#  13]+0.080*[#   4]+0.070*[#  14]+0.057*[#  84]+0.038*[#  33]
          +0.037*[#  53]+0.037*[#  74]+0.010*[#  44]+0.009*[#  43]+0.004*[#  64]
          +0.002*[#  63]+0.001*[#  70]
    |psi|^2 = 1.000
==== e(  16) =   -35.65109 eV ==== 
     psi = 0.233*[#  42]+0.119*[#   2]+0.119*[#  82]+0.117*[#  12]+0.117*[#  52]
          +0.114*[#  32]+0.114*[#  72]+0.046*[#  62]
    |psi|^2 = 1.000
==== e(  17) =   -35.64519 eV ==== 
     psi = 0.111*[#  43]+0.104*[#  53]+0.103*[#  33]+0.085*[#  74]+0.078*[#  14]
          +0.078*[#  44]+0.077*[#  73]+0.059*[#  34]+0.058*[#   4]+0.044*[#  63]
          +0.042*[#  84]+0.039*[#  83]+0.033*[#  64]+0.031*[#  13]+0.023*[#   3]
          +0.005*[#  54]+0.004*[#  12]+0.004*[#  52]+0.003*[#  42]+0.002*[#  32]
          +0.002*[#  72]+0.001*[#  62]
    |psi|^2 = 1.000
==== e(  18) =   -35.64410 eV ==== 
     psi = 0.151*[#   2]+0.151*[#  82]+0.132*[#  32]+0.132*[#  72]+0.118*[#  12]
          +0.118*[#  52]+0.100*[#  62]+0.065*[#  42]+0.002*[#  43]+0.002*[#  53]
          +0.001*[#  14]+0.002*[#  44]+0.001*[#  34]
    |psi|^2 = 1.000
==== e(  19) =   -35.63667 eV ==== 
     psi = 0.176*[#  12]+0.176*[#  52]+0.151*[#  32]+0.151*[#  72]+0.150*[#   2]
          +0.150*[#  82]+0.013*[#  62]+0.009*[#  42]+0.001*[#  53]
    |psi|^2 = 1.000
==== e(  20) =   -35.63366 eV ==== 
     psi = 0.132*[#  84]+0.114*[#  33]+0.093*[#  64]+0.090*[#  44]+0.080*[#   3]
          +0.078*[#  74]+0.064*[#   4]+0.057*[#  63]+0.050*[#  13]+0.048*[#  54]
          +0.046*[#  73]+0.037*[#  43]+0.035*[#  53]+0.033*[#  14]+0.012*[#  83]
          +0.010*[#  34]+0.003*[#   2]+0.003*[#  82]
    |psi|^2 = 1.000
==== e(  21) =   -35.62980 eV ==== 
     psi = 0.135*[#  13]+0.114*[#  63]+0.108*[#   3]+0.089*[#  53]+0.085*[#  54]
          +0.076*[#  83]+0.070*[#  84]+0.053*[#  64]+0.050*[#  34]+0.040*[#  14]
          +0.039*[#  43]+0.037*[#   4]+0.030*[#  73]+0.022*[#  74]+0.020*[#  44]
          +0.003*[#  42]+0.003*[#  32]+0.003*[#  72]+0.002*[#  62]+0.002*[#  33]
          +0.002*[#  12]+0.002*[#  52]+0.001*[#   2]+0.001*[#  82]
    |psi|^2 = 1.000
==== e(  22) =   -35.62064 eV ==== 
     psi = 0.120*[#  54]+0.120*[#  74]+0.116*[#  34]+0.102*[#   4]+0.084*[#  13]
          +0.073*[#  84]+0.052*[#  14]+0.050*[#  83]+0.046*[#  33]+0.046*[#  44]
          +0.043*[#  63]+0.042*[#  73]+0.029*[#  43]+0.025*[#  64]+0.021*[#   3]
          +0.016*[#  53]+0.002*[#  32]+0.002*[#  72]
    |psi|^2 = 1.000

Lowdin Charges: 

     Atom #   1: total charge =   5.3549, s =  1.9624, 
     Atom #   1: total charge =   5.3549, p =  3.3829, pz=  0.8827, px=  1.3503, py=  1.1500, 
     Atom #   1: total charge =   5.3549, d =  0.0096, dz2=  0.0020, dxz=  0.0001, dyz=  0.0002, dx2-y2=  0.0035, dxy=  0.0037, 
     Atom #   2: total charge =   5.4018, s =  1.9624, 
     Atom #   2: total charge =   5.4018, p =  3.4299, pz=  0.9072, px=  1.3669, py=  1.1557, 
     Atom #   2: total charge =   5.4018, d =  0.0095, dz2=  0.0020, dxz=  0.0001, dyz=  0.0002, dx2-y2=  0.0035, dxy=  0.0037, 
     Atom #   3: total charge =   1.9759, s =  1.9617, 
     Atom #   3: total charge =   1.9759, p =  0.0028, pz=  0.0001, px=  0.0014, py=  0.0014, 
     Atom #   3: total charge =   1.9759, d =  0.0114, dz2=  0.0023, dxz=  0.0003, dyz=  0.0003, dx2-y2=  0.0042, dxy=  0.0042, 
     Atom #   4: total charge =   5.3630, s =  1.9624, 
     Atom #   4: total charge =   5.3630, p =  3.3910, pz=  0.8872, px=  1.2293, py=  1.2745, 
     Atom #   4: total charge =   5.3630, d =  0.0096, dz2=  0.0020, dxz=  0.0002, dyz=  0.0001, dx2-y2=  0.0037, dxy=  0.0035, 
     Atom #   5: total charge =   4.6374, s =  1.9644, 
     Atom #   5: total charge =   4.6374, p =  2.6622, pz=  0.5312, px=  1.0670, py=  1.0641, 
     Atom #   5: total charge =   4.6374, d =  0.0107, dz2=  0.0023, dxz=  0.0003, dyz=  0.0003, dx2-y2=  0.0039, dxy=  0.0039, 
     Atom #   6: total charge =   5.4018, s =  1.9624, 
     Atom #   6: total charge =   5.4018, p =  3.4299, pz=  0.9072, px=  1.2416, py=  1.2810, 
     Atom #   6: total charge =   5.4018, d =  0.0095, dz2=  0.0020, dxz=  0.0002, dyz=  0.0002, dx2-y2=  0.0036, dxy=  0.0035, 
     Atom #   7: total charge =   4.4154, s =  1.9643, 
     Atom #   7: total charge =   4.4154, p =  2.4408, pz=  0.3152, px=  1.0636, py=  1.0620, 
     Atom #   7: total charge =   4.4154, d =  0.0103, dz2=  0.0022, dxz=  0.0003, dyz=  0.0003, dx2-y2=  0.0037, dxy=  0.0037, 
     Atom #   8: total charge =   5.3630, s =  1.9624, 
     Atom #   8: total charge =   5.3630, p =  3.3910, pz=  0.8872, px=  1.1712, py=  1.3326, 
     Atom #   8: total charge =   5.3630, d =  0.0096, dz2=  0.0020, dxz=  0.0002, dyz=  0.0002, dx2-y2=  0.0037, dxy=  0.0035, 
     Atom #   9: total charge =   5.3549, s =  1.9624, 
     Atom #   9: total charge =   5.3549, p =  3.3829, pz=  0.8827, px=  1.1680, py=  1.3322, 
     Atom #   9: total charge =   5.3549, d =  0.0096, dz2=  0.0020, dxz=  0.0002, dyz=  0.0002, dx2-y2=  0.0037, dxy=  0.0035, 
     Atom #  10: total charge =   0.0368, s =  0.0058, 
     Atom #  10: total charge =   0.0368, p =  0.0310, pz=  0.0141, px=  0.0085, py=  0.0084, 
     Atom #  10: total charge =   0.0368, d =  0.0000, dz2=  0.0000, dxz=  0.0000, dyz=  0.0000, dx2-y2=  0.0000, dxy=  0.0000, 
     Atom #  11: total charge =   0.0430, s =  0.0080, 
     Atom #  11: total charge =   0.0430, p =  0.0350, pz=  0.0175, px=  0.0092, py=  0.0084, 
     Atom #  11: total charge =   0.0430, d =  0.0000, dz2=  0.0000, dxz=  0.0000, dyz=  0.0000, dx2-y2=  0.0000, dxy=  0.0000, 
     Atom #  12: total charge =   0.0370, s =  0.0058, 
     Atom #  12: total charge =   0.0370, p =  0.0311, pz=  0.0141, px=  0.0086, py=  0.0084, 
     Atom #  12: total charge =   0.0370, d =  0.0000, dz2=  0.0000, dxz=  0.0000, dyz=  0.0000, dx2-y2=  0.0000, dxy=  0.0000, 
     Atom #  13: total charge =   0.0417, s =  0.0077, 
     Atom #  13: total charge =   0.0417, p =  0.0340, pz=  0.0170, px=  0.0088, py=  0.0082, 
     Atom #  13: total charge =   0.0417, d =  0.0000, dz2=  0.0000, dxz=  0.0000, dyz=  0.0000, dx2-y2=  0.0000, dxy=  0.0000, 
     Atom #  14: total charge =   0.0430, s =  0.0080, 
     Atom #  14: total charge =   0.0430, p =  0.0350, pz=  0.0175, px=  0.0086, py=  0.0089, 
     Atom #  14: total charge =   0.0430, d =  0.0000, dz2=  0.0000, dxz=  0.0000, dyz=  0.0000, dx2-y2=  0.0000, dxy=  0.0000, 
     Atom #  15: total charge =   0.0430, s =  0.0080, 
     Atom #  15: total charge =   0.0430, p =  0.0350, pz=  0.0175, px=  0.0087, py=  0.0089, 
     Atom #  15: total charge =   0.0430, d =  0.0000, dz2=  0.0000, dxz=  0.0000, dyz=  0.0000, dx2-y2=  0.0000, dxy=  0.0000, 
     Atom #  16: total charge =   0.0416, s =  0.0076, 
     Atom #  16: total charge =   0.0416, p =  0.0340, pz=  0.0170, px=  0.0084, py=  0.0086, 
     Atom #  16: total charge =   0.0416, d =  0.0000, dz2=  0.0000, dxz=  0.0000, dyz=  0.0000, dx2-y2=  0.0000, dxy=  0.0000, 
     Atom #  17: total charge =   0.0417, s =  0.0077, 
     Atom #  17: total charge =   0.0417, p =  0.0340, pz=  0.0170, px=  0.0084, py=  0.0087, 
     Atom #  17: total charge =   0.0417, d =  0.0000, dz2=  0.0000, dxz=  0.0000, dyz=  0.0000, dx2-y2=  0.0000, dxy=  0.0000, 
     Atom #  18: total charge =   0.0368, s =  0.0058, 
     Atom #  18: total charge =   0.0368, p =  0.0310, pz=  0.0141, px=  0.0083, py=  0.0087, 
     Atom #  18: total charge =   0.0368, d =  0.0000, dz2=  0.0000, dxz=  0.0000, dyz=  0.0000, dx2-y2=  0.0000, dxy=  0.0000, 
     Atom #  19: total charge =   0.0368, s =  0.0058, 
     Atom #  19: total charge =   0.0368, p =  0.0310, pz=  0.0141, px=  0.0085, py=  0.0084, 
     Atom #  19: total charge =   0.0368, d =  0.0000, dz2=  0.0000, dxz=  0.0000, dyz=  0.0000, dx2-y2=  0.0000, dxy=  0.0000, 
     Atom #  20: total charge =   0.0430, s =  0.0080, 
     Atom #  20: total charge =   0.0430, p =  0.0350, pz=  0.0175, px=  0.0092, py=  0.0084, 
     Atom #  20: total charge =   0.0430, d =  0.0000, dz2=  0.0000, dxz=  0.0000, dyz=  0.0000, dx2-y2=  0.0000, dxy=  0.0000, 
     Atom #  21: total charge =   0.0370, s =  0.0058, 
     Atom #  21: total charge =   0.0370, p =  0.0311, pz=  0.0141, px=  0.0086, py=  0.0084, 
     Atom #  21: total charge =   0.0370, d =  0.0000, dz2=  0.0000, dxz=  0.0000, dyz=  0.0000, dx2-y2=  0.0000, dxy=  0.0000, 
     Atom #  22: total charge =   0.0417, s =  0.0077, 
     Atom #  22: total charge =   0.0417, p =  0.0340, pz=  0.0170, px=  0.0088, py=  0.0082, 
     Atom #  22: total charge =   0.0417, d =  0.0000, dz2=  0.0000, dxz=  0.0000, dyz=  0.0000, dx2-y2=  0.0000, dxy=  0.0000, 
     Atom #  23: total charge =   0.0430, s =  0.0080, 
     Atom #  23: total charge =   0.0430, p =  0.0350, pz=  0.0175, px=  0.0086, py=  0.0089, 
     Atom #  23: total charge =   0.0430, d =  0.0000, dz2=  0.0000, dxz=  0.0000, dyz=  0.0000, dx2-y2=  0.0000, dxy=  0.0000, 
     Atom #  24: total charge =   0.0430, s =  0.0080, 
     Atom #  24: total charge =   0.0430, p =  0.0350, pz=  0.0175, px=  0.0087, py=  0.0089, 
     Atom #  24: total charge =   0.0430, d =  0.0000, dz2=  0.0000, dxz=  0.0000, dyz=  0.0000, dx2-y2=  0.0000, dxy=  0.0000, 
     Atom #  25: total charge =   0.0416, s =  0.0076, 
     Atom #  25: total charge =   0.0416, p =  0.0340, pz=  0.0170, px=  0.0084, py=  0.0086, 
     Atom #  25: total charge =   0.0416, d =  0.0000, dz2=  0.0000, dxz=  0.0000, dyz=  0.0000, dx2-y2=  0.0000, dxy=  0.0000, 
     Atom #  26: total charge =   0.0417, s =  0.0077, 
     Atom #  26: total charge =   0.0417, p =  0.0340, pz=  0.0170, px=  0.0084, py=  0.0087, 
     Atom #  26: total charge =   0.0417, d =  0.0000, dz2=  0.0000, dxz=  0.0000, dyz=  0.0000, dx2-y2=  0.0000, dxy=  0.0000, 
     Atom #  27: total charge =   0.0368, s =  0.0058, 
     Atom #  27: total charge =   0.0368, p =  0.0310, pz=  0.0141, px=  0.0083, py=  0.0087, 
     Atom #  27: total charge =   0.0368, d =  0.0000, dz2=  0.0000, dxz=  0.0000, dyz=  0.0000, dx2-y2=  0.0000, dxy=  0.0000, 
     Spilling Parameter:   0.8120

     PROJWFC      :   3m 9.15s CPU     33.68s WALL


   This run was terminated on:  18:55:45  17Nov2020            

=------------------------------------------------------------------------------=
   JOB DONE.
=------------------------------------------------------------------------------=
